
             +---------------------------------------------------+
             |                                                   |
             |                   WANNIER90                       |
             |                                                   |
             +---------------------------------------------------+
             |                                                   |
             |        Welcome to the Maximally-Localized         |
             |        Generalized Wannier Functions code         |
             |            http://www.wannier.org                 |
             |                                                   |
             |                                                   |
             |  Wannier90 Developer Group:                       |
             |    Giovanni Pizzi    (EPFL)                       |
             |    Valerio Vitale    (Cambridge)                  |
             |    David Vanderbilt  (Rutgers University)         |
             |    Nicola Marzari    (EPFL)                       |
             |    Ivo Souza         (Universidad del Pais Vasco) |
             |    Arash A. Mostofi  (Imperial College London)    |
             |    Jonathan R. Yates (University of Oxford)       |
             |                                                   |
             |  For the full list of Wannier90 3.x authors,      |
             |  please check the code documentation and the      |
             |  README on the GitHub page of the code            |
             |                                                   |
             |                                                   |
             |  Please cite                                      |
             |                                                   |
             |  [ref] "Wannier90 as a community code:            |
             |        new features and applications",            |
             |        G. Pizzi et al., J. Phys. Cond. Matt. 32,  |
             |        165902 (2020).                             |
             |        http://doi.org/10.1088/1361-648X/ab51ff    |
             |                                                   |
             |  in any publications arising from the use of      |
             |  this code. For the method please cite            |
             |                                                   |
             |  [ref] "Maximally Localized Generalised Wannier   |
             |         Functions for Composite Energy Bands"     |
             |         N. Marzari and D. Vanderbilt              |
             |         Phys. Rev. B 56 12847 (1997)              |
             |                                                   |
             |  [ref] "Maximally Localized Wannier Functions     |
             |         for Entangled Energy Bands"               |
             |         I. Souza, N. Marzari and D. Vanderbilt    |
             |         Phys. Rev. B 65 035109 (2001)             |
             |                                                   |
             |                                                   |
             | Copyright (c) 1996-2020                           |
             |        The Wannier90 Developer Group and          |
             |        individual contributors                    |
             |                                                   |
             |      Release: 3.1.0        5th March    2020      |
             |                                                   |
             | This program is free software; you can            |
             | redistribute it and/or modify it under the terms  |
             | of the GNU General Public License as published by |
             | the Free Software Foundation; either version 2 of |
             | the License, or (at your option) any later version|
             |                                                   |
             | This program is distributed in the hope that it   |
             | will be useful, but WITHOUT ANY WARRANTY; without |
             | even the implied warranty of MERCHANTABILITY or   |
             | FITNESS FOR A PARTICULAR PURPOSE. See the GNU     |
             | General Public License for more details.          |
             |                                                   |
             | You should have received a copy of the GNU General|
             | Public License along with this program; if not,   |
             | write to the Free Software Foundation, Inc.,      |
             | 675 Mass Ave, Cambridge, MA 02139, USA.           |
             |                                                   |
             +---------------------------------------------------+
             |    Execution started on  3Jul2023 at 11:39:52     |
             +---------------------------------------------------+
 
 ******************************************************************************
 * -> Using CODATA 2006 constant values                                       *
 *    (http://physics.nist.gov/cuu/Constants/index.html)                      *
 * -> Using Bohr value from CODATA                                            *
 ******************************************************************************
 

 Running in serial (with serial executable)

                                    ------
                                    SYSTEM
                                    ------

                              Lattice Vectors (Ang)
                    a_1    -0.000000   2.721852   2.721852
                    a_2     2.721852  -0.000000   2.721852
                    a_3     2.721852   2.721852   0.000000

                   Unit Cell Volume:      40.32954  (Ang^3)

                        Reciprocal-Space Vectors (Ang^-1)
                    b_1    -1.154212   1.154212   1.154212
                    b_2     1.154212  -1.154212   1.154212
                    b_3     1.154212   1.154212  -1.154212
  
 *----------------------------------------------------------------------------*
 |   Site       Fractional Coordinate          Cartesian Coordinate (Ang)     |
 +----------------------------------------------------------------------------+
 | 1    1  -0.12500   0.87500   0.87500   |    4.76324   2.04139   2.04139    |
 | 2    1   0.12500   0.12500   0.12500   |    0.68046   0.68046   0.68046    |
 *----------------------------------------------------------------------------*
                                ------------
                                K-POINT GRID
                                ------------
  
             Grid size = 10 x 10 x 10      Total points = 1000
  
  
 *---------------------------------- MAIN ------------------------------------*
 |  Number of Wannier Functions               :                16             |
 |  Number of Objective Wannier Functions     :                16             |
 |  Number of input Bloch states              :                16             |
 |  Output verbosity (1=low, 5=high)          :                 1             |
 |  Timing Level (1=low, 5=high)              :                 1             |
 |  Optimisation (0=memory, 3=speed)          :                 3             |
 |  Length Unit                               :               Ang             |
 |  Post-processing setup (write *.nnkp)      :                 F             |
 |  Using Gamma-only branch of algorithms     :                 F             |
 *----------------------------------------------------------------------------*
 *------------------------------- WANNIERISE ---------------------------------*
 |  Total number of iterations                :               100             |
 |  Number of CG steps before reset           :                 5             |
 |  Trial step length for line search         :             2.000             |
 |  Convergence tolerence                     :         0.100E-09             |
 |  Convergence window                        :                 3             |
 |  Iterations between writing output         :                 1             |
 |  Iterations between backing up to disk     :               100             |
 |  Write r^2_nm to file                      :                 F             |
 |  Write xyz WF centres to file              :                 T             |
 |  Write on-site energies <0n|H|0n> to file  :                 F             |
 |  Use guiding centre to control phases      :                 T             |
 |  Use phases for initial projections        :                 F             |
 |  Iterations before starting guiding centres:                 0             |
 |  Iterations between using guiding centres  :                 1             |
 *----------------------------------------------------------------------------*
 *-------------------------------- PLOTTING ----------------------------------*
 |  Plotting interpolated bandstructure       :                 T             |
 |   Number of K-path sections                :                 2             |
 |   Divisions along first K-path section     :                50             |
 |   Output format                            :           gnuplot             |
 |   Output mode                              :               s-k             |
 *----------------------------------------------------------------------------*
 |   K-space path sections:                                                   |
 |    From: G       0.000  0.000  0.000     To: L       0.000  0.500  0.000   |
 |    From: L       0.000  0.500  0.000     To: W      -0.250  0.500  0.250   |
 *----------------------------------------------------------------------------*
 |  Plotting Hamiltonian in WF basis          :                 T             |
 *----------------------------------------------------------------------------*
 Time to read parameters        0.212 (sec)

 *---------------------------------- K-MESH ----------------------------------*
 +----------------------------------------------------------------------------+
 |                    Distance to Nearest-Neighbour Shells                    |
 |                    ------------------------------------                    |
 |          Shell             Distance (Ang^-1)          Multiplicity         |
 |          -----             -----------------          ------------         |
 |             1                   0.199915                      8            |
 |             2                   0.230842                      6            |
 |             3                   0.326460                     12            |
 |             4                   0.382809                     24            |
 |             5                   0.399831                      8            |
 |             6                   0.461685                      6            |
 |             7                   0.503109                     24            |
 |             8                   0.516179                     24            |
 |             9                   0.565446                     24            |
 |            10                   0.599746                     32            |
 |            11                   0.652921                     12            |
 |            12                   0.682841                     48            |
 |            13                   0.692527                     30            |
 |            14                   0.729988                     24            |
 |            15                   0.756867                     24            |
 |            16                   0.765617                     24            |
 |            17                   0.799661                      8            |
 |            18                   0.824272                     48            |
 |            19                   0.832314                     24            |
 |            20                   0.863733                     48            |
 |            21                   0.886567                     72            |
 |            22                   0.923369                      6            |
 |            23                   0.944763                     24            |
 |            24                   0.951787                     48            |
 |            25                   0.979381                     36            |
 |            26                   0.999577                     56            |
 |            27                   1.006218                     24            |
 |            28                   1.032358                     24            |
 |            29                   1.051537                     72            |
 |            30                   1.057852                     48            |
 |            31                   1.082746                     24            |
 |            32                   1.101048                     48            |
 |            33                   1.130892                     24            |
 |            34                   1.148426                     72            |
 |            35                   1.154212                     30            |
 |            36                   1.177070                     72            |
 +----------------------------------------------------------------------------+
 | The b-vectors are chosen automatically                                     |
 | The following shells are used:   1                                         |
 +----------------------------------------------------------------------------+
 |                        Shell   # Nearest-Neighbours                        |
 |                        -----   --------------------                        |
 |                          1               8                                 |
 +----------------------------------------------------------------------------+
 | Completeness relation is fully satisfied [Eq. (B1), PRB 56, 12847 (1997)]  |
 +----------------------------------------------------------------------------+
 |                  b_k Vectors (Ang^-1) and Weights (Ang^2)                  |
 |                  ----------------------------------------                  |
 |            No.         b_k(x)      b_k(y)      b_k(z)        w_b           |
 |            ---        --------------------------------     --------        |
 |             1         0.115421    0.115421   -0.115421     9.382944        |
 |             2         0.115421   -0.115421    0.115421     9.382944        |
 |             3        -0.115421    0.115421    0.115421     9.382944        |
 |             4         0.115421    0.115421    0.115421     9.382944        |
 |             5        -0.115421   -0.115421    0.115421     9.382944        |
 |             6        -0.115421    0.115421   -0.115421     9.382944        |
 |             7         0.115421   -0.115421   -0.115421     9.382944        |
 |             8        -0.115421   -0.115421   -0.115421     9.382944        |
 +----------------------------------------------------------------------------+
 |                           b_k Directions (Ang^-1)                          |
 |                           -----------------------                          |
 |            No.           x           y           z                         |
 |            ---        --------------------------------                     |
 |             1         0.115421    0.115421   -0.115421                     |
 |             2         0.115421   -0.115421    0.115421                     |
 |             3        -0.115421    0.115421    0.115421                     |
 |             4         0.115421    0.115421    0.115421                     |
 +----------------------------------------------------------------------------+
  
 Time to get kmesh              0.391 (sec)
 *============================================================================*
 |                              MEMORY ESTIMATE                               |
 |         Maximum RAM allocated during each phase of the calculation         |
 *============================================================================*
 |                            Wannierise:           83.52 Mb                  |
 |                          plot_wannier:           83.52 Mb                  |
 *----------------------------------------------------------------------------*
  
 Starting a new Wannier90 calculation ...


 Reading overlaps from test3.mmn    : blebleble

 Reading projections from test3.amn : blebleble

 Time to read overlaps          1.672 (sec)

 Writing checkpoint file test3.chk... done


 *------------------------------- WANNIERISE ---------------------------------*
 +--------------------------------------------------------------------+<-- CONV
 | Iter  Delta Spread     RMS Gradient      Spread (Ang^2)      Time  |<-- CONV
 +--------------------------------------------------------------------+<-- CONV

 ------------------------------------------------------------------------------
 Initial State
  WF centre and spread    1  (  4.758274,  1.939072,  2.120869 )    62.60470453
  WF centre and spread    2  (  6.113076,  6.147759,  0.763779 )    61.01407500
  WF centre and spread    3  (  4.767882,  1.972115,  2.046779 )    61.92945074
  WF centre and spread    4  (  4.743007,  2.000465,  2.074481 )    62.18027851
  WF centre and spread    5  (  4.771732,  2.070079,  2.036586 )    61.99871481
  WF centre and spread    6  (  6.157270,  6.150122,  0.678769 )    62.50910901
  WF centre and spread    7  (  6.057491,  6.108963,  0.671452 )    62.21833288
  WF centre and spread    8  (  6.117273,  6.192363,  0.654360 )    62.34327807
  WF centre and spread    9  (  4.759946,  1.933309,  2.117550 )    62.59868999
  WF centre and spread   10  (  6.116832,  6.147916,  0.764147 )    61.01337161
  WF centre and spread   11  (  4.774837,  1.966526,  2.073187 )    61.89951022
  WF centre and spread   12  (  4.757368,  1.995203,  2.066051 )    62.16100745
  WF centre and spread   13  (  4.773785,  2.062186,  2.039938 )    61.95341217
  WF centre and spread   14  (  6.155092,  6.139563,  0.683042 )    62.44748440
  WF centre and spread   15  (  6.040981,  6.097334,  0.682362 )    62.34903304
  WF centre and spread   16  (  6.136149,  6.168291,  0.661245 )    62.32628470
  Sum of centres and spreads ( 87.000996, 65.091264, 22.134596 )   993.54673712

      0     0.994E+03     0.0000000000      993.5467371154       0.00  <-- CONV
        O_D=    107.0153380 O_OD=    827.9135379 O_TOT=    993.5467371 <-- SPRD
 ------------------------------------------------------------------------------
 Cycle:      1
  WF centre and spread    1  (  4.782292,  1.965642,  2.088393 )    59.60605070
  WF centre and spread    2  (  6.115215,  6.123597,  0.753630 )    58.52617942
  WF centre and spread    3  (  4.763045,  1.971059,  2.051647 )    59.56215180
  WF centre and spread    4  (  4.733349,  2.009815,  2.080547 )    59.70618326
  WF centre and spread    5  (  4.779526,  2.074188,  2.039271 )    59.49366388
  WF centre and spread    6  (  6.159191,  6.172719,  0.682328 )    59.94811599
  WF centre and spread    7  (  6.060209,  6.102719,  0.669518 )    59.98797659
  WF centre and spread    8  (  6.112630,  6.199597,  0.657866 )    59.70397157
  WF centre and spread    9  (  4.781291,  1.958626,  2.084962 )    59.64726267
  WF centre and spread   10  (  6.120999,  6.126695,  0.756654 )    58.49492308
  WF centre and spread   11  (  4.772222,  1.959257,  2.073771 )    59.56410298
  WF centre and spread   12  (  4.747948,  2.009331,  2.068267 )    59.73801587
  WF centre and spread   13  (  4.780654,  2.062359,  2.039729 )    59.39873378
  WF centre and spread   14  (  6.148539,  6.157406,  0.685778 )    60.20891643
  WF centre and spread   15  (  6.048526,  6.086944,  0.684228 )    59.75658153
  WF centre and spread   16  (  6.130223,  6.182326,  0.658951 )    59.85664971
  Sum of centres and spreads ( 87.035858, 65.162279, 22.075540 )   953.19947925

      1    -0.403E+02     8.2899490059      953.1994792526       0.35  <-- CONV
        O_D=     74.0149274 O_OD=    820.5666906 O_TOT=    953.1994793 <-- SPRD
 Delta: O_D= -0.3300041E+02 O_OD= -0.7346847E+01 O_TOT= -0.4034726E+02 <-- DLTA
 ------------------------------------------------------------------------------
 Cycle:      2
  WF centre and spread    1  (  4.789300,  1.969190,  2.092464 )    57.33208558
  WF centre and spread    2  (  6.119584,  6.116024,  0.745123 )    56.85404185
  WF centre and spread    3  (  4.757442,  1.976601,  2.062721 )    58.04579297
  WF centre and spread    4  (  4.726368,  2.002488,  2.070163 )    58.11522709
  WF centre and spread    5  (  4.770767,  2.077313,  2.050659 )    57.86896569
  WF centre and spread    6  (  6.155575,  6.169793,  0.683364 )    58.46167424
  WF centre and spread    7  (  6.050252,  6.095688,  0.670576 )    58.39333466
  WF centre and spread    8  (  6.102214,  6.200225,  0.662309 )    58.17107733
  WF centre and spread    9  (  4.790245,  1.962425,  2.090467 )    57.33283944
  WF centre and spread   10  (  6.126056,  6.119473,  0.749836 )    56.82141502
  WF centre and spread   11  (  4.765066,  1.961618,  2.084904 )    58.02030444
  WF centre and spread   12  (  4.738582,  2.003257,  2.060037 )    58.06058676
  WF centre and spread   13  (  4.774412,  2.069497,  2.046116 )    57.87553516
  WF centre and spread   14  (  6.148065,  6.155921,  0.682446 )    58.60864525
  WF centre and spread   15  (  6.042231,  6.079482,  0.687930 )    58.28406494
  WF centre and spread   16  (  6.118672,  6.181717,  0.663229 )    58.27173414
  Sum of centres and spreads ( 86.974831, 65.140711, 22.102346 )   926.51732458

      2    -0.267E+02     6.7303426442      926.5173245761       0.71  <-- CONV
        O_D=     56.8706608 O_OD=    811.0288026 O_TOT=    926.5173246 <-- SPRD
 Delta: O_D= -0.1714427E+02 O_OD= -0.9537888E+01 O_TOT= -0.2668215E+02 <-- DLTA
 ------------------------------------------------------------------------------
 Cycle:      3
  WF centre and spread    1  (  4.777919,  1.975307,  2.084989 )    54.04329927
  WF centre and spread    2  (  6.132987,  6.087975,  0.734315 )    53.61960632
  WF centre and spread    3  (  4.756703,  1.997370,  2.070500 )    54.93810019
  WF centre and spread    4  (  4.725418,  2.003602,  2.069274 )    54.77253207
  WF centre and spread    5  (  4.760971,  2.070462,  2.075608 )    54.59313710
  WF centre and spread    6  (  6.139838,  6.156941,  0.680369 )    55.27752444
  WF centre and spread    7  (  6.019943,  6.103748,  0.674011 )    55.01210062
  WF centre and spread    8  (  6.069004,  6.189288,  0.659439 )    54.80114701
  WF centre and spread    9  (  4.779914,  1.968343,  2.085197 )    53.99713687
  WF centre and spread   10  (  6.139085,  6.091875,  0.741275 )    53.57276797
  WF centre and spread   11  (  4.760073,  1.978723,  2.093594 )    54.93884772
  WF centre and spread   12  (  4.738708,  2.004615,  2.058377 )    54.58490124
  WF centre and spread   13  (  4.764627,  2.067495,  2.069652 )    54.51610874
  WF centre and spread   14  (  6.136543,  6.146254,  0.669204 )    55.30461434
  WF centre and spread   15  (  6.017374,  6.087429,  0.690357 )    54.91379225
  WF centre and spread   16  (  6.086961,  6.166752,  0.658252 )    54.84960217
  Sum of centres and spreads ( 86.806066, 65.096179, 22.114414 )   873.73521832

      3    -0.528E+02     5.3955422575      873.7352183195       1.08  <-- CONV
        O_D=     44.9918973 O_OD=    770.1254598 O_TOT=    873.7352183 <-- SPRD
 Delta: O_D= -0.1187876E+02 O_OD= -0.4090334E+02 O_TOT= -0.5278211E+02 <-- DLTA
 ------------------------------------------------------------------------------
 Cycle:      4
  WF centre and spread    1  (  4.770538,  2.007924,  2.031974 )    50.26586788
  WF centre and spread    2  (  6.160436,  6.067858,  0.691721 )    50.14680124
  WF centre and spread    3  (  4.767803,  2.049432,  2.074618 )    51.38018379
  WF centre and spread    4  (  4.739440,  1.996845,  2.063209 )    51.10836251
  WF centre and spread    5  (  4.766340,  2.082505,  2.083142 )    50.94636604
  WF centre and spread    6  (  6.122226,  6.165166,  0.685057 )    51.89695665
  WF centre and spread    7  (  6.001660,  6.102018,  0.663596 )    51.62296611
  WF centre and spread    8  (  6.052190,  6.165164,  0.685247 )    51.18336518
  WF centre and spread    9  (  4.772732,  1.998884,  2.033192 )    50.18441975
  WF centre and spread   10  (  6.169374,  6.072976,  0.700693 )    50.08318814
  WF centre and spread   11  (  4.763829,  2.032903,  2.107103 )    51.36820039
  WF centre and spread   12  (  4.753971,  1.994770,  2.066237 )    50.96733277
  WF centre and spread   13  (  4.757874,  2.075752,  2.065502 )    50.86532315
  WF centre and spread   14  (  6.119939,  6.158834,  0.670846 )    52.16407521
  WF centre and spread   15  (  6.010427,  6.078606,  0.683857 )    51.58486344
  WF centre and spread   16  (  6.086463,  6.139110,  0.689842 )    51.31791686
  Sum of centres and spreads ( 86.815239, 65.188748, 21.995837 )   817.08618913

      4    -0.566E+02     6.5830688016      817.0861891268       1.45  <-- CONV
        O_D=     54.5846581 O_OD=    703.8836698 O_TOT=    817.0861891 <-- SPRD
 Delta: O_D=  0.9592761E+01 O_OD= -0.6624179E+02 O_TOT= -0.5664903E+02 <-- DLTA
 ------------------------------------------------------------------------------
 Cycle:      5
  WF centre and spread    1  (  4.769939,  2.014026,  2.028818 )    49.47278534
  WF centre and spread    2  (  6.168461,  6.070242,  0.691138 )    49.51839151
  WF centre and spread    3  (  4.774684,  2.054913,  2.073455 )    50.73151544
  WF centre and spread    4  (  4.737954,  1.994628,  2.060790 )    50.47753911
  WF centre and spread    5  (  4.767455,  2.081725,  2.081639 )    50.35622690
  WF centre and spread    6  (  6.128091,  6.163558,  0.684668 )    51.27466955
  WF centre and spread    7  (  5.999136,  6.102154,  0.660769 )    51.02176304
  WF centre and spread    8  (  6.049920,  6.160954,  0.688028 )    50.58696247
  WF centre and spread    9  (  4.771809,  2.004648,  2.029586 )    49.38616156
  WF centre and spread   10  (  6.177992,  6.076015,  0.700668 )    49.44304007
  WF centre and spread   11  (  4.772825,  2.038349,  2.105781 )    50.66837291
  WF centre and spread   12  (  4.751597,  1.990901,  2.064477 )    50.33632855
  WF centre and spread   13  (  4.758852,  2.071560,  2.064292 )    50.25447404
  WF centre and spread   14  (  6.119974,  6.156798,  0.671668 )    51.43288486
  WF centre and spread   15  (  6.009403,  6.079262,  0.678401 )    50.98345189
  WF centre and spread   16  (  6.085302,  6.133996,  0.694220 )    50.76056864
  Sum of centres and spreads ( 86.843394, 65.193729, 21.978399 )   806.70513588

      5    -0.104E+02     7.3618868861      806.7051358825       1.83  <-- CONV
        O_D=     52.6156965 O_OD=    695.4715782 O_TOT=    806.7051359 <-- SPRD
 Delta: O_D= -0.1968962E+01 O_OD= -0.8412092E+01 O_TOT= -0.1038105E+02 <-- DLTA
 ------------------------------------------------------------------------------
 Cycle:      6
  WF centre and spread    1  (  4.765446,  2.035356,  2.027406 )    46.48722064
  WF centre and spread    2  (  6.189948,  6.084466,  0.689087 )    47.32917020
  WF centre and spread    3  (  4.796895,  2.067584,  2.071983 )    48.45533118
  WF centre and spread    4  (  4.726649,  1.993775,  2.056581 )    48.25484300
  WF centre and spread    5  (  4.765947,  2.070563,  2.074056 )    48.20210298
  WF centre and spread    6  (  6.148401,  6.159901,  0.674773 )    49.17579479
  WF centre and spread    7  (  5.995765,  6.097885,  0.654795 )    48.77574636
  WF centre and spread    8  (  6.039479,  6.154934,  0.688916 )    48.35710738
  WF centre and spread    9  (  4.766749,  2.027756,  2.026671 )    46.33082338
  WF centre and spread   10  (  6.203314,  6.092714,  0.700982 )    47.23067391
  WF centre and spread   11  (  4.801727,  2.054370,  2.101827 )    48.38628809
  WF centre and spread   12  (  4.741494,  1.990530,  2.066055 )    48.08479369
  WF centre and spread   13  (  4.757822,  2.057257,  2.059360 )    48.04370709
  WF centre and spread   14  (  6.123084,  6.150697,  0.664243 )    49.06855633
  WF centre and spread   15  (  6.013873,  6.077367,  0.658721 )    48.74683757
  WF centre and spread   16  (  6.074887,  6.129963,  0.696308 )    48.57011510
  Sum of centres and spreads ( 86.911478, 65.245120, 21.911765 )   769.49911169

      6    -0.372E+02     6.6872816727      769.4991116917       2.21  <-- CONV
        O_D=     38.8221573 O_OD=    672.0590931 O_TOT=    769.4991117 <-- SPRD
 Delta: O_D= -0.1379354E+02 O_OD= -0.2341249E+02 O_TOT= -0.3720602E+02 <-- DLTA
 ------------------------------------------------------------------------------
 Cycle:      7
  WF centre and spread    1  (  4.763858,  2.033110,  2.029258 )    45.58974975
  WF centre and spread    2  (  6.195863,  6.087353,  0.688811 )    46.54568412
  WF centre and spread    3  (  4.800216,  2.064858,  2.071526 )    47.66958164
  WF centre and spread    4  (  4.727463,  1.996302,  2.058695 )    47.48618545
  WF centre and spread    5  (  4.765428,  2.072227,  2.072968 )    47.45936234
  WF centre and spread    6  (  6.147762,  6.156789,  0.673764 )    48.45479065
  WF centre and spread    7  (  5.993299,  6.101491,  0.651008 )    48.00432595
  WF centre and spread    8  (  6.037814,  6.152922,  0.689398 )    47.63843434
  WF centre and spread    9  (  4.765357,  2.025598,  2.028589 )    45.43758447
  WF centre and spread   10  (  6.209150,  6.096156,  0.700319 )    46.45285408
  WF centre and spread   11  (  4.801296,  2.053851,  2.105515 )    47.67037327
  WF centre and spread   12  (  4.741557,  1.992914,  2.066407 )    47.35088483
  WF centre and spread   13  (  4.756867,  2.059507,  2.059164 )    47.27727810
  WF centre and spread   14  (  6.123234,  6.148540,  0.662767 )    48.33657075
  WF centre and spread   15  (  6.011769,  6.080090,  0.658234 )    48.00059326
  WF centre and spread   16  (  6.072711,  6.127303,  0.695712 )    47.82170012
  Sum of centres and spreads ( 86.913644, 65.249010, 21.912133 )   757.19595311

      7    -0.123E+02     6.0569635195      757.1959531136       2.60  <-- CONV
        O_D=     33.8534545 O_OD=    664.7246374 O_TOT=    757.1959531 <-- SPRD
 Delta: O_D= -0.4968703E+01 O_OD= -0.7334456E+01 O_TOT= -0.1230316E+02 <-- DLTA
 ------------------------------------------------------------------------------
 Cycle:      8
  WF centre and spread    1  (  4.756045,  2.017336,  2.038536 )    41.02627540
  WF centre and spread    2  (  6.232073,  6.111685,  0.671102 )    42.56893619
  WF centre and spread    3  (  4.816944,  2.049401,  2.085769 )    44.22531286
  WF centre and spread    4  (  4.724555,  2.014323,  2.067061 )    43.18133340
  WF centre and spread    5  (  4.780752,  2.063177,  2.061961 )    43.21818287
  WF centre and spread    6  (  6.154136,  6.134781,  0.666178 )    44.40505823
  WF centre and spread    7  (  5.984043,  6.119318,  0.631528 )    43.91361080
  WF centre and spread    8  (  6.015710,  6.148164,  0.687414 )    43.27243996
  WF centre and spread    9  (  4.758277,  2.010636,  2.038914 )    40.81194230
  WF centre and spread   10  (  6.246387,  6.121913,  0.680829 )    42.51669132
  WF centre and spread   11  (  4.805691,  2.032762,  2.129715 )    43.70396842
  WF centre and spread   12  (  4.734950,  2.007603,  2.067717 )    43.06386110
  WF centre and spread   13  (  4.768092,  2.061602,  2.058790 )    42.97653606
  WF centre and spread   14  (  6.135048,  6.131595,  0.654874 )    44.26445324
  WF centre and spread   15  (  5.997359,  6.099989,  0.650920 )    43.93832125
  WF centre and spread   16  (  6.055461,  6.126040,  0.691858 )    43.41448339
  Sum of centres and spreads ( 86.965524, 65.250326, 21.883165 )   690.50140680

      8    -0.667E+02     5.2628081159      690.5014067997       2.99  <-- CONV
        O_D=     35.2964347 O_OD=    596.5871109 O_TOT=    690.5014068 <-- SPRD
 Delta: O_D=  0.1442980E+01 O_OD= -0.6813753E+02 O_TOT= -0.6669455E+02 <-- DLTA
 ------------------------------------------------------------------------------
 Cycle:      9
  WF centre and spread    1  (  4.757555,  2.006276,  2.040002 )    39.25448406
  WF centre and spread    2  (  6.256662,  6.123667,  0.668191 )    40.09622765
  WF centre and spread    3  (  4.842429,  2.033841,  2.106309 )    41.82606807
  WF centre and spread    4  (  4.726200,  2.039732,  2.067242 )    40.93223571
  WF centre and spread    5  (  4.793559,  2.052411,  2.057458 )    40.93059345
  WF centre and spread    6  (  6.169783,  6.126394,  0.668137 )    42.21992915
  WF centre and spread    7  (  5.982186,  6.127742,  0.628057 )    41.73444342
  WF centre and spread    8  (  6.001015,  6.148312,  0.681264 )    41.00698900
  WF centre and spread    9  (  4.757928,  2.001533,  2.041471 )    39.03414927
  WF centre and spread   10  (  6.272721,  6.134835,  0.675649 )    40.05612969
  WF centre and spread   11  (  4.821369,  2.010742,  2.136291 )    41.56411527
  WF centre and spread   12  (  4.740057,  2.030870,  2.067628 )    40.92698769
  WF centre and spread   13  (  4.779515,  2.056766,  2.058572 )    40.67844669
  WF centre and spread   14  (  6.150840,  6.124359,  0.650872 )    42.02124434
  WF centre and spread   15  (  5.994624,  6.111663,  0.641201 )    41.79183694
  WF centre and spread   16  (  6.039326,  6.127952,  0.678767 )    41.20971904
  Sum of centres and spreads ( 87.085770, 65.257094, 21.867112 )   655.28359944

      9    -0.352E+02     6.2268995072      655.2835994445       3.38  <-- CONV
        O_D=     40.1114846 O_OD=    556.5542536 O_TOT=    655.2835994 <-- SPRD
 Delta: O_D=  0.4815050E+01 O_OD= -0.4003286E+02 O_TOT= -0.3521781E+02 <-- DLTA
 ------------------------------------------------------------------------------
 Cycle:     10
  WF centre and spread    1  (  4.755245,  2.011726,  2.040696 )    37.84214143
  WF centre and spread    2  (  6.271102,  6.123455,  0.668997 )    38.33035370
  WF centre and spread    3  (  4.846056,  2.027413,  2.103336 )    40.18612562
  WF centre and spread    4  (  4.732085,  2.061672,  2.070838 )    39.47905779
  WF centre and spread    5  (  4.802687,  2.043664,  2.052278 )    39.38660307
  WF centre and spread    6  (  6.180027,  6.122196,  0.675361 )    40.63867732
  WF centre and spread    7  (  5.987571,  6.130396,  0.627754 )    40.21322811
  WF centre and spread    8  (  5.992996,  6.143692,  0.674691 )    39.58434924
  WF centre and spread    9  (  4.755033,  2.007425,  2.041542 )    37.64305177
  WF centre and spread   10  (  6.288397,  6.135683,  0.673998 )    38.31657830
  WF centre and spread   11  (  4.838033,  2.004395,  2.135199 )    40.15062350
  WF centre and spread   12  (  4.746675,  2.051557,  2.072883 )    39.57731878
  WF centre and spread   13  (  4.788562,  2.050055,  2.055648 )    39.09885972
  WF centre and spread   14  (  6.160099,  6.122785,  0.652716 )    40.42353803
  WF centre and spread   15  (  5.995004,  6.119132,  0.638428 )    40.30534093
  WF centre and spread   16  (  6.031299,  6.125655,  0.669324 )    39.77494682
  Sum of centres and spreads ( 87.170870, 65.280900, 21.853690 )   630.95079414

     10    -0.243E+02     6.1813968110      630.9507941394       3.78  <-- CONV
        O_D=     33.9327163 O_OD=    538.4002166 O_TOT=    630.9507941 <-- SPRD
 Delta: O_D= -0.6178768E+01 O_OD= -0.1815404E+02 O_TOT= -0.2433281E+02 <-- DLTA
 ------------------------------------------------------------------------------
 Cycle:     11
  WF centre and spread    1  (  4.756425,  2.028535,  2.053393 )    36.16086739
  WF centre and spread    2  (  6.282371,  6.111862,  0.659541 )    36.46358908
  WF centre and spread    3  (  4.859108,  2.014586,  2.089201 )    38.72934315
  WF centre and spread    4  (  4.742444,  2.085764,  2.075203 )    37.76392049
  WF centre and spread    5  (  4.820951,  2.026368,  2.040304 )    37.56833294
  WF centre and spread    6  (  6.188864,  6.113051,  0.680186 )    38.72399808
  WF centre and spread    7  (  6.003694,  6.128919,  0.623168 )    38.38798332
  WF centre and spread    8  (  5.978850,  6.131131,  0.665526 )    37.75427764
  WF centre and spread    9  (  4.756563,  2.023085,  2.054004 )    35.93663904
  WF centre and spread   10  (  6.300196,  6.125853,  0.660946 )    36.45759107
  WF centre and spread   11  (  4.851281,  1.991044,  2.123644 )    38.57243792
  WF centre and spread   12  (  4.755756,  2.080036,  2.082153 )    37.86748798
  WF centre and spread   13  (  4.805856,  2.034148,  2.047873 )    37.18377997
  WF centre and spread   14  (  6.171425,  6.120702,  0.654808 )    38.45628897
  WF centre and spread   15  (  6.007399,  6.124305,  0.636534 )    38.49656385
  WF centre and spread   16  (  6.019357,  6.116282,  0.659694 )    37.90503084
  Sum of centres and spreads ( 87.300539, 65.255671, 21.806179 )   602.42813173

     11    -0.285E+02     5.7002883120      602.4281317303       4.18  <-- CONV
        O_D=     29.5506928 O_OD=    514.2595777 O_TOT=    602.4281317 <-- SPRD
 Delta: O_D= -0.4382024E+01 O_OD= -0.2414064E+02 O_TOT= -0.2852266E+02 <-- DLTA
 ------------------------------------------------------------------------------
 Cycle:     12
  WF centre and spread    1  (  4.756543,  2.029537,  2.054240 )    36.06250256
  WF centre and spread    2  (  6.283009,  6.111210,  0.658804 )    36.34558535
  WF centre and spread    3  (  4.852980,  2.016219,  2.092552 )    38.50277544
  WF centre and spread    4  (  4.742943,  2.086912,  2.075191 )    37.65406008
  WF centre and spread    5  (  4.822223,  2.025313,  2.039287 )    37.46064554
  WF centre and spread    6  (  6.189066,  6.112553,  0.680397 )    38.61029313
  WF centre and spread    7  (  6.004252,  6.128862,  0.623190 )    38.27393207
  WF centre and spread    8  (  5.977602,  6.130335,  0.665035 )    37.63374953
  WF centre and spread    9  (  4.756656,  2.024012,  2.054881 )    35.83439475
  WF centre and spread   10  (  6.300728,  6.125251,  0.659999 )    36.34003052
  WF centre and spread   11  (  4.851863,  1.989885,  2.122672 )    38.47083264
  WF centre and spread   12  (  4.756111,  2.081479,  2.082445 )    37.75719849
  WF centre and spread   13  (  4.806679,  2.033292,  2.047007 )    37.06903148
  WF centre and spread   14  (  6.171986,  6.120299,  0.654984 )    38.34139769
  WF centre and spread   15  (  6.008255,  6.124437,  0.636592 )    38.38400590
  WF centre and spread   16  (  6.018186,  6.115563,  0.659234 )    37.78418033
  Sum of centres and spreads ( 87.299081, 65.255160, 21.806509 )   600.52461548

     12    -0.190E+01     6.9192963075      600.5246154809       4.58  <-- CONV
        O_D=     29.3740568 O_OD=    512.5326975 O_TOT=    600.5246155 <-- SPRD
 Delta: O_D= -0.1766360E+00 O_OD= -0.1726880E+01 O_TOT= -0.1903516E+01 <-- DLTA
 ------------------------------------------------------------------------------
 Cycle:     13
  WF centre and spread    1  (  4.755668,  2.027654,  2.060340 )    31.62066696
  WF centre and spread    2  (  6.293734,  6.116722,  0.648947 )    32.35215334
  WF centre and spread    3  (  4.833744,  1.996640,  2.082104 )    34.39607581
  WF centre and spread    4  (  4.739713,  2.100579,  2.067119 )    33.48049289
  WF centre and spread    5  (  4.842290,  2.019095,  2.022262 )    33.54702940
  WF centre and spread    6  (  6.182588,  6.092453,  0.679052 )    34.74352425
  WF centre and spread    7  (  5.993760,  6.134520,  0.623060 )    34.25930981
  WF centre and spread    8  (  5.954139,  6.124582,  0.663608 )    33.65058127
  WF centre and spread    9  (  4.754600,  2.021192,  2.060940 )    31.37655500
  WF centre and spread   10  (  6.308939,  6.128926,  0.651987 )    32.38425677
  WF centre and spread   11  (  4.833605,  1.967535,  2.108445 )    34.41204944
  WF centre and spread   12  (  4.755078,  2.092574,  2.078589 )    33.64655756
  WF centre and spread   13  (  4.815101,  2.029150,  2.027908 )    33.14008877
  WF centre and spread   14  (  6.172201,  6.094363,  0.661025 )    34.43875280
  WF centre and spread   15  (  5.995832,  6.128947,  0.639479 )    34.43102327
  WF centre and spread   16  (  5.990407,  6.106969,  0.660554 )    33.77540824
  Sum of centres and spreads ( 87.221399, 65.181902, 21.735420 )   535.65452558

     13    -0.649E+02     6.1381108029      535.6545255752       4.99  <-- CONV
        O_D=     23.5462178 O_OD=    453.4904466 O_TOT=    535.6545256 <-- SPRD
 Delta: O_D= -0.5827839E+01 O_OD= -0.5904225E+02 O_TOT= -0.6487009E+02 <-- DLTA
 ------------------------------------------------------------------------------
 Cycle:     14
  WF centre and spread    1  (  4.768179,  2.039060,  2.083206 )    29.20398137
  WF centre and spread    2  (  6.302505,  6.113598,  0.630863 )    29.29078059
  WF centre and spread    3  (  4.826181,  1.985188,  2.078567 )    31.71103644
  WF centre and spread    4  (  4.746790,  2.115349,  2.066833 )    30.72573917
  WF centre and spread    5  (  4.868196,  2.004944,  2.010657 )    30.99197588
  WF centre and spread    6  (  6.186805,  6.078452,  0.674963 )    31.72761076
  WF centre and spread    7  (  6.015706,  6.139952,  0.644585 )    31.56827282
  WF centre and spread    8  (  5.922198,  6.116016,  0.664240 )    30.84789597
  WF centre and spread    9  (  4.768217,  2.029116,  2.082633 )    28.95530005
  WF centre and spread   10  (  6.318330,  6.123258,  0.632940 )    29.31209882
  WF centre and spread   11  (  4.834291,  1.961458,  2.091922 )    31.60800046
  WF centre and spread   12  (  4.760914,  2.109976,  2.083943 )    30.92504135
  WF centre and spread   13  (  4.842581,  2.021843,  2.020154 )    30.58141360
  WF centre and spread   14  (  6.178536,  6.080994,  0.655691 )    31.46442652
  WF centre and spread   15  (  6.019389,  6.141899,  0.658385 )    31.73842454
  WF centre and spread   16  (  5.958928,  6.097952,  0.661974 )    30.96170499
  Sum of centres and spreads ( 87.317746, 65.159056, 21.741555 )   491.61370333

     14    -0.440E+02     4.7000858565      491.6137033296       5.40  <-- CONV
        O_D=     20.6044458 O_OD=    412.3913963 O_TOT=    491.6137033 <-- SPRD
 Delta: O_D= -0.2941772E+01 O_OD= -0.4109905E+02 O_TOT= -0.4404082E+02 <-- DLTA
 ------------------------------------------------------------------------------
 Cycle:     15
  WF centre and spread    1  (  4.773405,  2.055239,  2.083088 )    27.64919229
  WF centre and spread    2  (  6.325333,  6.116743,  0.613159 )    26.81161406
  WF centre and spread    3  (  4.820208,  1.984576,  2.055573 )    29.44420357
  WF centre and spread    4  (  4.766353,  2.133474,  2.067436 )    28.80451253
  WF centre and spread    5  (  4.887761,  1.979042,  1.988150 )    29.20057132
  WF centre and spread    6  (  6.183489,  6.052738,  0.672913 )    28.99450854
  WF centre and spread    7  (  6.040514,  6.149577,  0.650586 )    29.43246378
  WF centre and spread    8  (  5.920475,  6.113345,  0.669912 )    28.59308555
  WF centre and spread    9  (  4.776885,  2.043697,  2.081158 )    27.36770023
  WF centre and spread   10  (  6.338932,  6.124130,  0.615544 )    26.87260040
  WF centre and spread   11  (  4.820955,  1.954199,  2.062052 )    29.49691674
  WF centre and spread   12  (  4.775923,  2.133965,  2.086715 )    29.00287589
  WF centre and spread   13  (  4.860891,  2.003681,  1.998691 )    28.82316090
  WF centre and spread   14  (  6.177662,  6.053191,  0.660150 )    28.75989185
  WF centre and spread   15  (  6.043632,  6.156772,  0.667000 )    29.61914407
  WF centre and spread   16  (  5.957457,  6.103555,  0.669037 )    28.67620035
  Sum of centres and spreads ( 87.469877, 65.157923, 21.641163 )   457.54864207

     15    -0.341E+02     4.4880592370      457.5486420691       5.82  <-- CONV
        O_D=     22.5764304 O_OD=    376.3543505 O_TOT=    457.5486421 <-- SPRD
 Delta: O_D=  0.1971985E+01 O_OD= -0.3603705E+02 O_TOT= -0.3406506E+02 <-- DLTA
 ------------------------------------------------------------------------------
 Cycle:     16
  WF centre and spread    1  (  4.790602,  2.064585,  2.088666 )    26.23043207
  WF centre and spread    2  (  6.347052,  6.116508,  0.604054 )    25.26125158
  WF centre and spread    3  (  4.823006,  1.979455,  2.027746 )    28.35152429
  WF centre and spread    4  (  4.778475,  2.141501,  2.073247 )    27.74750020
  WF centre and spread    5  (  4.894622,  1.956062,  1.981648 )    28.03952757
  WF centre and spread    6  (  6.184754,  6.028611,  0.676580 )    27.73201308
  WF centre and spread    7  (  6.068397,  6.148903,  0.669886 )    28.21694731
  WF centre and spread    8  (  5.928935,  6.125101,  0.666938 )    27.10484139
  WF centre and spread    9  (  4.796138,  2.053881,  2.086888 )    25.93729778
  WF centre and spread   10  (  6.357379,  6.122494,  0.606533 )    25.35411014
  WF centre and spread   11  (  4.808534,  1.945363,  2.035091 )    28.29357795
  WF centre and spread   12  (  4.785843,  2.145885,  2.096536 )    27.91783953
  WF centre and spread   13  (  4.867441,  1.987246,  1.994175 )    27.70494819
  WF centre and spread   14  (  6.176476,  6.029712,  0.671822 )    27.50030925
  WF centre and spread   15  (  6.070298,  6.160579,  0.687086 )    28.48255925
  WF centre and spread   16  (  5.960789,  6.120436,  0.666581 )    27.20259898
  Sum of centres and spreads ( 87.638741, 65.126319, 21.633477 )   437.07727858

     16    -0.205E+02     5.3941781300      437.0772785780       6.23  <-- CONV
        O_D=     19.7733705 O_OD=    358.6860468 O_TOT=    437.0772786 <-- SPRD
 Delta: O_D= -0.2803060E+01 O_OD= -0.1766830E+02 O_TOT= -0.2047136E+02 <-- DLTA
 ------------------------------------------------------------------------------
 Cycle:     17
  WF centre and spread    1  (  4.802481,  2.071408,  2.093392 )    25.07330314
  WF centre and spread    2  (  6.367386,  6.118968,  0.599823 )    24.09118477
  WF centre and spread    3  (  4.818629,  1.962654,  1.998975 )    27.13750429
  WF centre and spread    4  (  4.780086,  2.145002,  2.080290 )    26.79173463
  WF centre and spread    5  (  4.901542,  1.943601,  1.990316 )    26.98229281
  WF centre and spread    6  (  6.179331,  6.021459,  0.676398 )    26.56101291
  WF centre and spread    7  (  6.086017,  6.145611,  0.682486 )    27.18390091
  WF centre and spread    8  (  5.936908,  6.140200,  0.668643 )    25.87786930
  WF centre and spread    9  (  4.808738,  2.061853,  2.091651 )    24.76256894
  WF centre and spread   10  (  6.375961,  6.124585,  0.600987 )    24.20566697
  WF centre and spread   11  (  4.805326,  1.944379,  2.010562 )    27.21832146
  WF centre and spread   12  (  4.787346,  2.150346,  2.105978 )    26.92938248
  WF centre and spread   13  (  4.872567,  1.979218,  2.002435 )    26.70409001
  WF centre and spread   14  (  6.176250,  6.017378,  0.674224 )    26.39526145
  WF centre and spread   15  (  6.085532,  6.162477,  0.697239 )    27.51449389
  WF centre and spread   16  (  5.965028,  6.138208,  0.667904 )    26.01056141
  Sum of centres and spreads ( 87.749127, 65.127347, 21.641305 )   419.43914939

     17    -0.176E+02     5.3634685166      419.4391493859       6.65  <-- CONV
        O_D=     17.3889065 O_OD=    343.4323817 O_TOT=    419.4391494 <-- SPRD
 Delta: O_D= -0.2384464E+01 O_OD= -0.1525367E+02 O_TOT= -0.1763813E+02 <-- DLTA
 ------------------------------------------------------------------------------
 Cycle:     18
  WF centre and spread    1  (  4.811435,  2.082395,  2.101815 )    23.70795795
  WF centre and spread    2  (  6.401362,  6.126233,  0.596629 )    22.60466202
  WF centre and spread    3  (  4.809001,  1.949570,  1.969429 )    25.46563296
  WF centre and spread    4  (  4.775986,  2.148148,  2.091891 )    25.42232130
  WF centre and spread    5  (  4.892277,  1.935827,  2.002278 )    25.56796681
  WF centre and spread    6  (  6.171341,  6.006225,  0.671046 )    24.89485496
  WF centre and spread    7  (  6.113511,  6.133802,  0.705126 )    25.75848766
  WF centre and spread    8  (  5.936423,  6.169472,  0.670203 )    24.27849353
  WF centre and spread    9  (  4.818240,  2.074494,  2.100415 )    23.34379508
  WF centre and spread   10  (  6.408541,  6.131780,  0.595367 )    22.70444233
  WF centre and spread   11  (  4.797382,  1.939281,  1.977543 )    25.64733376
  WF centre and spread   12  (  4.783284,  2.152391,  2.118748 )    25.51417769
  WF centre and spread   13  (  4.858886,  1.977867,  2.012673 )    25.24609177
  WF centre and spread   14  (  6.172332,  6.005060,  0.677003 )    24.73455331
  WF centre and spread   15  (  6.109828,  6.159906,  0.714234 )    26.18655527
  WF centre and spread   16  (  5.959371,  6.169061,  0.672660 )    24.40125964
  Sum of centres and spreads ( 87.819200, 65.161510, 21.677059 )   395.47858604

     18    -0.240E+02     5.0268270660      395.4785860414       7.07  <-- CONV
        O_D=     17.6509718 O_OD=    319.2097530 O_TOT=    395.4785860 <-- SPRD
 Delta: O_D=  0.2620653E+00 O_OD= -0.2422263E+02 O_TOT= -0.2396056E+02 <-- DLTA
 ------------------------------------------------------------------------------
 Cycle:     19
  WF centre and spread    1  (  4.802103,  2.100420,  2.097406 )    20.36548805
  WF centre and spread    2  (  6.426047,  6.121977,  0.604461 )    19.00525107
  WF centre and spread    3  (  4.796437,  1.955411,  1.950161 )    21.78791800
  WF centre and spread    4  (  4.779332,  2.158559,  2.095427 )    21.92033702
  WF centre and spread    5  (  4.888365,  1.933019,  2.007385 )    22.19842107
  WF centre and spread    6  (  6.161028,  5.999050,  0.666369 )    20.98581904
  WF centre and spread    7  (  6.134105,  6.120263,  0.730600 )    22.26970890
  WF centre and spread    8  (  5.918986,  6.202904,  0.664919 )    20.82741621
  WF centre and spread    9  (  4.811062,  2.092493,  2.096542 )    20.00018083
  WF centre and spread   10  (  6.433756,  6.128106,  0.602802 )    19.09483213
  WF centre and spread   11  (  4.790664,  1.942076,  1.958245 )    21.95503552
  WF centre and spread   12  (  4.784988,  2.162963,  2.119981 )    21.98266224
  WF centre and spread   13  (  4.854632,  1.978184,  2.019672 )    21.88844812
  WF centre and spread   14  (  6.166543,  6.001733,  0.676307 )    20.80422887
  WF centre and spread   15  (  6.131018,  6.148547,  0.741956 )    22.81273103
  WF centre and spread   16  (  5.945899,  6.206352,  0.678130 )    20.95277101
  Sum of centres and spreads ( 87.824965, 65.252058, 21.710362 )   338.85124913

     19    -0.566E+02     5.0530724194      338.8512491289       7.48  <-- CONV
        O_D=     19.7724308 O_OD=    260.4609571 O_TOT=    338.8512491 <-- SPRD
 Delta: O_D=  0.2121459E+01 O_OD= -0.5874880E+02 O_TOT= -0.5662734E+02 <-- DLTA
 ------------------------------------------------------------------------------
 Cycle:     20
  WF centre and spread    1  (  4.800072,  2.109472,  2.106192 )    18.44138938
  WF centre and spread    2  (  6.443865,  6.126690,  0.602108 )    17.39624179
  WF centre and spread    3  (  4.794951,  1.951420,  1.935046 )    20.20194255
  WF centre and spread    4  (  4.778943,  2.168499,  2.104764 )    20.48204516
  WF centre and spread    5  (  4.878547,  1.941421,  2.014518 )    20.61896753
  WF centre and spread    6  (  6.145802,  5.995541,  0.658612 )    19.38253268
  WF centre and spread    7  (  6.145250,  6.108460,  0.759309 )    20.84974838
  WF centre and spread    8  (  5.913024,  6.235461,  0.656174 )    19.10854544
  WF centre and spread    9  (  4.809585,  2.103450,  2.104604 )    18.11686222
  WF centre and spread   10  (  6.451830,  6.134561,  0.600627 )    17.50095768
  WF centre and spread   11  (  4.792537,  1.943061,  1.944040 )    20.35796962
  WF centre and spread   12  (  4.787463,  2.173657,  2.126557 )    20.55152329
  WF centre and spread   13  (  4.844168,  1.984175,  2.025413 )    20.32692191
  WF centre and spread   14  (  6.153370,  6.001447,  0.676204 )    19.14285040
  WF centre and spread   15  (  6.142082,  6.137660,  0.769133 )    21.33798880
  WF centre and spread   16  (  5.937975,  6.244613,  0.673853 )    19.24736764
  Sum of centres and spreads ( 87.819464, 65.359589, 21.757153 )   313.06385448

     20    -0.258E+02     4.1068743635      313.0638544847       7.91  <-- CONV
        O_D=     13.0547695 O_OD=    241.3912238 O_TOT=    313.0638545 <-- SPRD
 Delta: O_D= -0.6717661E+01 O_OD= -0.1906973E+02 O_TOT= -0.2578739E+02 <-- DLTA
 ------------------------------------------------------------------------------
 Cycle:     21
  WF centre and spread    1  (  4.797088,  2.115447,  2.113718 )    17.13544298
  WF centre and spread    2  (  6.454776,  6.136282,  0.600560 )    16.22548621
  WF centre and spread    3  (  4.770890,  1.934500,  1.898632 )    19.00504381
  WF centre and spread    4  (  4.772576,  2.171224,  2.098609 )    19.44388853
  WF centre and spread    5  (  4.866089,  1.949194,  2.016025 )    19.43128902
  WF centre and spread    6  (  6.126419,  5.997771,  0.655011 )    18.09915429
  WF centre and spread    7  (  6.162009,  6.098339,  0.787444 )    19.81406326
  WF centre and spread    8  (  5.909961,  6.268948,  0.648982 )    17.98624135
  WF centre and spread    9  (  4.806287,  2.112400,  2.110323 )    16.80967198
  WF centre and spread   10  (  6.464561,  6.145697,  0.598907 )    16.33546258
  WF centre and spread   11  (  4.773308,  1.926902,  1.908455 )    19.13538492
  WF centre and spread   12  (  4.782255,  2.177149,  2.117045 )    19.50559927
  WF centre and spread   13  (  4.830133,  1.991684,  2.032381 )    19.11812396
  WF centre and spread   14  (  6.136579,  6.006867,  0.680757 )    17.81217896
  WF centre and spread   15  (  6.158985,  6.128929,  0.795755 )    20.30802604
  WF centre and spread   16  (  5.932780,  6.282333,  0.666074 )    18.03970892
  Sum of centres and spreads ( 87.744695, 65.443668, 21.728679 )   294.20476610

     21    -0.189E+02     2.9382584583      294.2047660977       8.33  <-- CONV
        O_D=     13.8727438 O_OD=    221.7141611 O_TOT=    294.2047661 <-- SPRD
 Delta: O_D=  0.8179743E+00 O_OD= -0.1967706E+02 O_TOT= -0.1885909E+02 <-- DLTA
 ------------------------------------------------------------------------------
 Cycle:     22
  WF centre and spread    1  (  4.790923,  2.106976,  2.132374 )    15.92653226
  WF centre and spread    2  (  6.465562,  6.146362,  0.599736 )    15.33148446
  WF centre and spread    3  (  4.751577,  1.933831,  1.862207 )    17.99841087
  WF centre and spread    4  (  4.773217,  2.172956,  2.099611 )    18.81987992
  WF centre and spread    5  (  4.855093,  1.955136,  2.035412 )    18.50935003
  WF centre and spread    6  (  6.117937,  6.000802,  0.659794 )    17.13921195
  WF centre and spread    7  (  6.162960,  6.085262,  0.819737 )    19.04982914
  WF centre and spread    8  (  5.902976,  6.292219,  0.647101 )    17.09229340
  WF centre and spread    9  (  4.799953,  2.105131,  2.126025 )    15.69235294
  WF centre and spread   10  (  6.477582,  6.157841,  0.597686 )    15.46743459
  WF centre and spread   11  (  4.756889,  1.925014,  1.878873 )    18.09894208
  WF centre and spread   12  (  4.788755,  2.181002,  2.112008 )    18.92464581
  WF centre and spread   13  (  4.816772,  1.997326,  2.054342 )    18.21203171
  WF centre and spread   14  (  6.129565,  6.015107,  0.690756 )    16.80424117
  WF centre and spread   15  (  6.164845,  6.116213,  0.827024 )    19.55440628
  WF centre and spread   16  (  5.925507,  6.310109,  0.667510 )    17.12514124
  Sum of centres and spreads ( 87.680113, 65.501287, 21.810198 )   279.74618785

     22    -0.145E+02     3.1948258737      279.7461878503       8.75  <-- CONV
        O_D=     12.4203456 O_OD=    208.7079810 O_TOT=    279.7461879 <-- SPRD
 Delta: O_D= -0.1452398E+01 O_OD= -0.1300618E+02 O_TOT= -0.1445858E+02 <-- DLTA
 ------------------------------------------------------------------------------
 Cycle:     23
  WF centre and spread    1  (  4.804673,  2.093517,  2.140487 )    15.01225561
  WF centre and spread    2  (  6.467649,  6.160043,  0.599131 )    14.69124293
  WF centre and spread    3  (  4.737633,  1.924608,  1.832084 )    17.23788613
  WF centre and spread    4  (  4.776862,  2.179187,  2.101388 )    18.29899886
  WF centre and spread    5  (  4.850647,  1.964478,  2.051136 )    17.79078722
  WF centre and spread    6  (  6.119856,  6.011333,  0.661341 )    16.56469549
  WF centre and spread    7  (  6.150529,  6.072949,  0.841072 )    18.45404337
  WF centre and spread    8  (  5.898474,  6.300158,  0.644756 )    16.45799658
  WF centre and spread    9  (  4.815273,  2.092115,  2.130778 )    14.74135151
  WF centre and spread   10  (  6.481522,  6.173719,  0.596603 )    14.83555528
  WF centre and spread   11  (  4.744156,  1.914972,  1.851227 )    17.28885766
  WF centre and spread   12  (  4.796329,  2.189292,  2.107683 )    18.42332883
  WF centre and spread   13  (  4.811039,  2.005513,  2.069634 )    17.49578740
  WF centre and spread   14  (  6.137781,  6.024852,  0.703030 )    16.09397085
  WF centre and spread   15  (  6.157675,  6.103001,  0.848414 )    18.92410264
  WF centre and spread   16  (  5.920712,  6.323762,  0.668382 )    16.46315438
  Sum of centres and spreads ( 87.670810, 65.533499, 21.847144 )   268.77401471

     23    -0.110E+02     3.2873774171      268.7740147114       9.17  <-- CONV
        O_D=     11.8472045 O_OD=    198.3089490 O_TOT=    268.7740147 <-- SPRD
 Delta: O_D= -0.5731411E+00 O_OD= -0.1039903E+02 O_TOT= -0.1097217E+02 <-- DLTA
 ------------------------------------------------------------------------------
 Cycle:     24
  WF centre and spread    1  (  4.805105,  2.093171,  2.140606 )    14.99376192
  WF centre and spread    2  (  6.467633,  6.160355,  0.599134 )    14.67553725
  WF centre and spread    3  (  4.737442,  1.924321,  1.831344 )    17.21928943
  WF centre and spread    4  (  4.776977,  2.179405,  2.101339 )    18.28478559
  WF centre and spread    5  (  4.850641,  1.964736,  2.051421 )    17.77455680
  WF centre and spread    6  (  6.123462,  6.009049,  0.663376 )    16.45902265
  WF centre and spread    7  (  6.150168,  6.072684,  0.841423 )    18.43981941
  WF centre and spread    8  (  5.898414,  6.300274,  0.644655 )    16.44339025
  WF centre and spread    9  (  4.815690,  2.091805,  2.130812 )    14.72390675
  WF centre and spread   10  (  6.481539,  6.174074,  0.596589 )    14.82012066
  WF centre and spread   11  (  4.744018,  1.914759,  1.850589 )    17.27042634
  WF centre and spread   12  (  4.796529,  2.189566,  2.107551 )    18.40968544
  WF centre and spread   13  (  4.810979,  2.005739,  2.069914 )    17.48059944
  WF centre and spread   14  (  6.138074,  6.025086,  0.703363 )    16.07972753
  WF centre and spread   15  (  6.157393,  6.102719,  0.848755 )    18.91001571
  WF centre and spread   16  (  5.920616,  6.324003,  0.668369 )    16.44787248
  Sum of centres and spreads ( 87.674680, 65.531747, 21.849240 )   268.43251764

     24    -0.341E+00     4.3312172395      268.4325176411       9.58  <-- CONV
        O_D=     11.7389406 O_OD=    198.0757158 O_TOT=    268.4325176 <-- SPRD
 Delta: O_D= -0.1082639E+00 O_OD= -0.2332332E+00 O_TOT= -0.3414971E+00 <-- DLTA
 ------------------------------------------------------------------------------
 Cycle:     25
  WF centre and spread    1  (  4.816966,  2.088672,  2.143855 )    13.59157844
  WF centre and spread    2  (  6.466920,  6.166415,  0.598330 )    13.43881492
  WF centre and spread    3  (  4.736841,  1.916367,  1.819211 )    15.87577147
  WF centre and spread    4  (  4.777651,  2.186885,  2.103623 )    16.99557562
  WF centre and spread    5  (  4.850740,  1.969462,  2.054990 )    16.48538135
  WF centre and spread    6  (  6.135050,  6.011315,  0.673056 )    15.21214641
  WF centre and spread    7  (  6.145721,  6.070008,  0.842957 )    17.24185258
  WF centre and spread    8  (  5.898848,  6.305137,  0.645265 )    15.25949045
  WF centre and spread    9  (  4.826873,  2.088449,  2.132857 )    13.37672934
  WF centre and spread   10  (  6.480953,  6.180502,  0.596401 )    13.58790153
  WF centre and spread   11  (  4.747899,  1.911116,  1.843198 )    15.88661598
  WF centre and spread   12  (  4.798184,  2.198145,  2.107507 )    17.11854052
  WF centre and spread   13  (  4.809740,  2.009636,  2.074667 )    16.25229318
  WF centre and spread   14  (  6.143594,  6.028831,  0.708865 )    14.86140575
  WF centre and spread   15  (  6.153029,  6.097397,  0.852571 )    17.72955578
  WF centre and spread   16  (  5.919848,  6.330749,  0.668643 )    15.20875977
  Sum of centres and spreads ( 87.708857, 65.559085, 21.865997 )   248.12241310

     25    -0.203E+02     3.2501607040      248.1224130989       9.99  <-- CONV
        O_D=      9.8566089 O_OD=    179.6479430 O_TOT=    248.1224131 <-- SPRD
 Delta: O_D= -0.1882332E+01 O_OD= -0.1842777E+02 O_TOT= -0.2031010E+02 <-- DLTA
 ------------------------------------------------------------------------------
 Cycle:     26
  WF centre and spread    1  (  4.844124,  2.080808,  2.141302 )    12.75189092
  WF centre and spread    2  (  6.458473,  6.179041,  0.600348 )    12.73016030
  WF centre and spread    3  (  4.738882,  1.908807,  1.800344 )    15.06935546
  WF centre and spread    4  (  4.799282,  2.205652,  2.104618 )    16.29262604
  WF centre and spread    5  (  4.852459,  1.980272,  2.066582 )    15.67419575
  WF centre and spread    6  (  6.151547,  6.024530,  0.677731 )    14.43369807
  WF centre and spread    7  (  6.130639,  6.059342,  0.847322 )    16.54820726
  WF centre and spread    8  (  5.901275,  6.311193,  0.640982 )    14.63197217
  WF centre and spread    9  (  4.854378,  2.081126,  2.127344 )    12.56676661
  WF centre and spread   10  (  6.473182,  6.193825,  0.600119 )    12.87218226
  WF centre and spread   11  (  4.747182,  1.891800,  1.821566 )    15.02794011
  WF centre and spread   12  (  4.822556,  2.217078,  2.102800 )    16.46301754
  WF centre and spread   13  (  4.808761,  2.016405,  2.084906 )    15.47139611
  WF centre and spread   14  (  6.155403,  6.038665,  0.716319 )    14.16629348
  WF centre and spread   15  (  6.143917,  6.085213,  0.859465 )    17.01060010
  WF centre and spread   16  (  5.922239,  6.341064,  0.668604 )    14.56014266
  Sum of centres and spreads ( 87.804298, 65.614820, 21.860353 )   236.27044484

     26    -0.119E+02     1.9279891101      236.2704448359      10.40  <-- CONV
        O_D=      9.6287324 O_OD=    168.0238512 O_TOT=    236.2704448 <-- SPRD
 Delta: O_D= -0.2278765E+00 O_OD= -0.1162409E+02 O_TOT= -0.1185197E+02 <-- DLTA
 ------------------------------------------------------------------------------
 Cycle:     27
  WF centre and spread    1  (  4.878436,  2.068179,  2.134150 )    12.22282856
  WF centre and spread    2  (  6.444865,  6.183253,  0.601819 )    12.23606314
  WF centre and spread    3  (  4.747940,  1.893140,  1.770266 )    14.66057201
  WF centre and spread    4  (  4.796661,  2.214280,  2.103177 )    15.90946938
  WF centre and spread    5  (  4.855513,  1.987198,  2.079217 )    15.19405732
  WF centre and spread    6  (  6.170442,  6.027058,  0.685895 )    14.06805058
  WF centre and spread    7  (  6.116091,  6.048943,  0.843166 )    16.19291143
  WF centre and spread    8  (  5.907200,  6.312977,  0.634490 )    14.38852370
  WF centre and spread    9  (  4.887061,  2.068863,  2.119742 )    12.07355960
  WF centre and spread   10  (  6.460266,  6.199054,  0.603255 )    12.38319907
  WF centre and spread   11  (  4.760621,  1.887818,  1.804044 )    14.46654723
  WF centre and spread   12  (  4.819680,  2.225563,  2.097855 )    16.10711876
  WF centre and spread   13  (  4.808107,  2.018436,  2.095360 )    15.04288316
  WF centre and spread   14  (  6.168574,  6.041006,  0.725266 )    13.94892784
  WF centre and spread   15  (  6.131924,  6.072275,  0.860578 )    16.66437853
  WF centre and spread   16  (  5.923840,  6.348174,  0.663217 )    14.28335628
  Sum of centres and spreads ( 87.877221, 65.596217, 21.821498 )   229.84244660

     27    -0.643E+01     2.0008092413      229.8424465960      10.81  <-- CONV
        O_D=      9.5035046 O_OD=    161.7210808 O_TOT=    229.8424466 <-- SPRD
 Delta: O_D= -0.1252278E+00 O_OD= -0.6302770E+01 O_TOT= -0.6427998E+01 <-- DLTA
 ------------------------------------------------------------------------------
 Cycle:     28
  WF centre and spread    1  (  4.900145,  2.058042,  2.130260 )    11.80515179
  WF centre and spread    2  (  6.434185,  6.185473,  0.605437 )    11.84092922
  WF centre and spread    3  (  4.758979,  1.880265,  1.757121 )    14.12664428
  WF centre and spread    4  (  4.804149,  2.217932,  2.100689 )    15.55851222
  WF centre and spread    5  (  4.858487,  1.991158,  2.087108 )    14.82025182
  WF centre and spread    6  (  6.181529,  6.032361,  0.689459 )    13.66930096
  WF centre and spread    7  (  6.103778,  6.040989,  0.841921 )    15.93193103
  WF centre and spread    8  (  5.910969,  6.312986,  0.628401 )    14.18055325
  WF centre and spread    9  (  4.907382,  2.059508,  2.115740 )    11.68311093
  WF centre and spread   10  (  6.450270,  6.202189,  0.607820 )    12.00139912
  WF centre and spread   11  (  4.771070,  1.877471,  1.790309 )    14.05292913
  WF centre and spread   12  (  4.829973,  2.228413,  2.093737 )    15.75954682
  WF centre and spread   13  (  4.807796,  2.018087,  2.102241 )    14.69456019
  WF centre and spread   14  (  6.175288,  6.047672,  0.728815 )    13.54095026
  WF centre and spread   15  (  6.119373,  6.061174,  0.863401 )    16.41329019
  WF centre and spread   16  (  5.924778,  6.353115,  0.659167 )    14.06697065
  Sum of centres and spreads ( 87.938152, 65.566836, 21.801626 )   224.14603186

     28    -0.570E+01     2.3548295669      224.1460318608      11.22  <-- CONV
        O_D=      8.7099008 O_OD=    156.8182698 O_TOT=    224.1460319 <-- SPRD
 Delta: O_D= -0.7936038E+00 O_OD= -0.4902811E+01 O_TOT= -0.5696415E+01 <-- DLTA
 ------------------------------------------------------------------------------
 Cycle:     29
  WF centre and spread    1  (  4.929021,  2.040713,  2.124690 )    11.11388083
  WF centre and spread    2  (  6.417818,  6.187079,  0.612461 )    11.18604152
  WF centre and spread    3  (  4.782280,  1.861752,  1.726017 )    13.50302398
  WF centre and spread    4  (  4.815251,  2.221938,  2.090700 )    15.08282976
  WF centre and spread    5  (  4.866172,  1.998289,  2.096251 )    14.19824060
  WF centre and spread    6  (  6.200568,  6.041298,  0.697220 )    13.25592120
  WF centre and spread    7  (  6.080426,  6.025858,  0.846876 )    15.51038426
  WF centre and spread    8  (  5.914816,  6.311278,  0.615862 )    13.79304463
  WF centre and spread    9  (  4.933455,  2.044422,  2.110583 )    11.03652294
  WF centre and spread   10  (  6.435191,  6.204854,  0.615914 )    11.36190946
  WF centre and spread   11  (  4.796178,  1.859354,  1.763691 )    13.40176838
  WF centre and spread   12  (  4.845909,  2.230044,  2.081413 )    15.31026486
  WF centre and spread   13  (  4.808520,  2.016467,  2.109682 )    14.10956059
  WF centre and spread   14  (  6.186945,  6.060034,  0.737373 )    13.20078341
  WF centre and spread   15  (  6.091085,  6.038114,  0.874728 )    15.99009767
  WF centre and spread   16  (  5.923428,  6.360308,  0.651060 )    13.69261837
  Sum of centres and spreads ( 88.027062, 65.501801, 21.754519 )   215.74689246

     29    -0.840E+01     2.1520708814      215.7468924607      11.62  <-- CONV
        O_D=      8.5327621 O_OD=    148.5962691 O_TOT=    215.7468925 <-- SPRD
 Delta: O_D= -0.1771387E+00 O_OD= -0.8222001E+01 O_TOT= -0.8399139E+01 <-- DLTA
 ------------------------------------------------------------------------------
 Cycle:     30
  WF centre and spread    1  (  4.941701,  2.031553,  2.119490 )    10.83588957
  WF centre and spread    2  (  6.406698,  6.186767,  0.615925 )    10.84556335
  WF centre and spread    3  (  4.801297,  1.854554,  1.708013 )    13.22017031
  WF centre and spread    4  (  4.824696,  2.222021,  2.083172 )    14.96047663
  WF centre and spread    5  (  4.870240,  2.002411,  2.100373 )    13.98577890
  WF centre and spread    6  (  6.210980,  6.049603,  0.701575 )    13.17995767
  WF centre and spread    7  (  6.066519,  6.015932,  0.853734 )    15.33548749
  WF centre and spread    8  (  5.916493,  6.308252,  0.608169 )    13.65162576
  WF centre and spread    9  (  4.944757,  2.037200,  2.106186 )    10.77581394
  WF centre and spread   10  (  6.425149,  6.204967,  0.620325 )    11.02991534
  WF centre and spread   11  (  4.815403,  1.848441,  1.748352 )    13.10989888
  WF centre and spread   12  (  4.856275,  2.230325,  2.071340 )    15.20018095
  WF centre and spread   13  (  4.807618,  2.015459,  2.112040 )    13.88874162
  WF centre and spread   14  (  6.192633,  6.070625,  0.743481 )    13.11938692
  WF centre and spread   15  (  6.073117,  6.024681,  0.884137 )    15.81400077
  WF centre and spread   16  (  5.922871,  6.362691,  0.645373 )    13.55573484
  Sum of centres and spreads ( 88.076445, 65.465484, 21.721684 )   212.50862292

     30    -0.324E+01     2.3024340923      212.5086229162      12.02  <-- CONV
        O_D=      8.4645430 O_OD=    145.4262187 O_TOT=    212.5086229 <-- SPRD
 Delta: O_D= -0.6821915E-01 O_OD= -0.3170050E+01 O_TOT= -0.3238270E+01 <-- DLTA
 ------------------------------------------------------------------------------
 Cycle:     31
  WF centre and spread    1  (  4.946075,  2.031161,  2.116643 )     9.98562240
  WF centre and spread    2  (  6.399738,  6.189281,  0.614327 )     9.92513847
  WF centre and spread    3  (  4.810845,  1.851773,  1.700862 )    12.39037942
  WF centre and spread    4  (  4.828144,  2.222944,  2.081089 )    14.29837973
  WF centre and spread    5  (  4.873076,  2.006094,  2.101613 )    13.16802029
  WF centre and spread    6  (  6.212479,  6.054139,  0.700923 )    12.36430445
  WF centre and spread    7  (  6.063870,  6.014595,  0.853931 )    14.50799587
  WF centre and spread    8  (  5.916308,  6.305732,  0.604723 )    12.98614876
  WF centre and spread    9  (  4.948513,  2.035336,  2.105207 )     9.92954688
  WF centre and spread   10  (  6.418424,  6.207140,  0.620233 )    10.10005366
  WF centre and spread   11  (  4.824399,  1.841825,  1.738681 )    12.32566926
  WF centre and spread   12  (  4.858096,  2.231348,  2.067604 )    14.52860838
  WF centre and spread   13  (  4.808115,  2.017940,  2.112861 )    13.08858655
  WF centre and spread   14  (  6.191465,  6.075143,  0.743720 )    12.31584813
  WF centre and spread   15  (  6.072129,  6.027010,  0.884379 )    14.96582132
  WF centre and spread   16  (  5.924360,  6.363059,  0.642440 )    12.90300682
  Sum of centres and spreads ( 88.096038, 65.474522, 21.689236 )   199.78313041

     31    -0.127E+02     2.4464166931      199.7831304113      12.43  <-- CONV
        O_D=      8.0118704 O_OD=    133.1533988 O_TOT=    199.7831304 <-- SPRD
 Delta: O_D= -0.4526725E+00 O_OD= -0.1227282E+02 O_TOT= -0.1272549E+02 <-- DLTA
 ------------------------------------------------------------------------------
 Cycle:     32
  WF centre and spread    1  (  4.946049,  2.026326,  2.114948 )     9.67828892
  WF centre and spread    2  (  6.390630,  6.190699,  0.616283 )     9.48705775
  WF centre and spread    3  (  4.822948,  1.847157,  1.696104 )    12.04433396
  WF centre and spread    4  (  4.828580,  2.226940,  2.074273 )    13.96780375
  WF centre and spread    5  (  4.878278,  2.011702,  2.103111 )    12.84344713
  WF centre and spread    6  (  6.215761,  6.056869,  0.706851 )    12.03257583
  WF centre and spread    7  (  6.058584,  6.010193,  0.855480 )    14.19636452
  WF centre and spread    8  (  5.915800,  6.300510,  0.601699 )    12.72556030
  WF centre and spread    9  (  4.946515,  2.030729,  2.104406 )     9.63392455
  WF centre and spread   10  (  6.409546,  6.207995,  0.623889 )     9.65260153
  WF centre and spread   11  (  4.837634,  1.834689,  1.732745 )    12.01448245
  WF centre and spread   12  (  4.860252,  2.230332,  2.061759 )    14.23465482
  WF centre and spread   13  (  4.810386,  2.020564,  2.111918 )    12.77600027
  WF centre and spread   14  (  6.190411,  6.080674,  0.748697 )    11.98591802
  WF centre and spread   15  (  6.061002,  6.017960,  0.888913 )    14.64639835
  WF centre and spread   16  (  5.923980,  6.362484,  0.639797 )    12.64475375
  Sum of centres and spreads ( 88.096356, 65.455823, 21.680873 )   194.56416591

     32    -0.522E+01     1.7007883859      194.5641659100      12.84  <-- CONV
        O_D=      7.0594612 O_OD=    128.8868435 O_TOT=    194.5641659 <-- SPRD
 Delta: O_D= -0.9524092E+00 O_OD= -0.4266555E+01 O_TOT= -0.5218965E+01 <-- DLTA
 ------------------------------------------------------------------------------
 Cycle:     33
  WF centre and spread    1  (  4.941049,  2.018599,  2.109867 )     9.38215516
  WF centre and spread    2  (  6.372137,  6.192045,  0.618834 )     8.89393067
  WF centre and spread    3  (  4.837404,  1.833464,  1.685538 )    11.80315241
  WF centre and spread    4  (  4.836607,  2.231489,  2.061943 )    13.72083509
  WF centre and spread    5  (  4.887825,  2.021448,  2.106562 )    12.50520121
  WF centre and spread    6  (  6.216885,  6.069751,  0.715319 )    11.83622750
  WF centre and spread    7  (  6.053404,  6.007134,  0.856282 )    13.85586667
  WF centre and spread    8  (  5.915853,  6.287575,  0.598904 )    12.45830449
  WF centre and spread    9  (  4.939882,  2.022226,  2.101841 )     9.34113452
  WF centre and spread   10  (  6.389588,  6.208354,  0.629151 )     9.05465172
  WF centre and spread   11  (  4.852272,  1.821904,  1.720628 )    11.70993439
  WF centre and spread   12  (  4.865817,  2.235273,  2.046068 )    14.03041443
  WF centre and spread   13  (  4.814745,  2.026120,  2.111565 )    12.44672954
  WF centre and spread   14  (  6.185383,  6.095371,  0.759353 )    11.79074925
  WF centre and spread   15  (  6.052290,  6.011928,  0.892419 )    14.29840427
  WF centre and spread   16  (  5.924962,  6.358739,  0.635248 )    12.41129990
  Sum of centres and spreads ( 88.086103, 65.441420, 21.649523 )   189.53899122

     33    -0.503E+01     1.3856360869      189.5389912180      13.24  <-- CONV
        O_D=      7.0707197 O_OD=    123.8504103 O_TOT=    189.5389912 <-- SPRD
 Delta: O_D=  0.1125848E-01 O_OD= -0.5036433E+01 O_TOT= -0.5025175E+01 <-- DLTA
 ------------------------------------------------------------------------------
 Cycle:     34
  WF centre and spread    1  (  4.926963,  2.002135,  2.103178 )     9.12007762
  WF centre and spread    2  (  6.352529,  6.195887,  0.622573 )     8.19816402
  WF centre and spread    3  (  4.859488,  1.816355,  1.676980 )    11.49025291
  WF centre and spread    4  (  4.842112,  2.231152,  2.052038 )    13.53454290
  WF centre and spread    5  (  4.905366,  2.035892,  2.113415 )    12.30601264
  WF centre and spread    6  (  6.215818,  6.082556,  0.733873 )    11.65693896
  WF centre and spread    7  (  6.041873,  5.994366,  0.855334 )    13.49422524
  WF centre and spread    8  (  5.918121,  6.268971,  0.595052 )    12.25221008
  WF centre and spread    9  (  4.922294,  2.005923,  2.098514 )     9.07143591
  WF centre and spread   10  (  6.368686,  6.212214,  0.636122 )     8.35323535
  WF centre and spread   11  (  4.876456,  1.803516,  1.707376 )    11.28378880
  WF centre and spread   12  (  4.867146,  2.231358,  2.033326 )    13.88151213
  WF centre and spread   13  (  4.824549,  2.035479,  2.113962 )    12.25728336
  WF centre and spread   14  (  6.173728,  6.115527,  0.775711 )    11.59760500
  WF centre and spread   15  (  6.038850,  5.995953,  0.892978 )    13.95729549
  WF centre and spread   16  (  5.926733,  6.353104,  0.629335 )    12.26709631
  Sum of centres and spreads ( 88.060712, 65.380385, 21.639768 )   184.72167671

     34    -0.482E+01     1.5470548363      184.7216767057      13.64  <-- CONV
        O_D=      6.7025083 O_OD=    119.4013072 O_TOT=    184.7216767 <-- SPRD
 Delta: O_D= -0.3682114E+00 O_OD= -0.4449103E+01 O_TOT= -0.4817315E+01 <-- DLTA
 ------------------------------------------------------------------------------
 Cycle:     35
  WF centre and spread    1  (  4.904574,  1.982641,  2.095153 )     8.83253039
  WF centre and spread    2  (  6.341970,  6.200204,  0.626448 )     7.57847546
  WF centre and spread    3  (  4.876808,  1.798490,  1.670810 )    11.24698844
  WF centre and spread    4  (  4.845084,  2.227319,  2.046839 )    13.34362850
  WF centre and spread    5  (  4.931152,  2.051079,  2.118835 )    12.18209117
  WF centre and spread    6  (  6.217034,  6.106359,  0.751187 )    11.51201836
  WF centre and spread    7  (  6.043305,  5.984040,  0.851102 )    13.16434756
  WF centre and spread    8  (  5.926519,  6.250256,  0.589803 )    12.13841979
  WF centre and spread    9  (  4.898896,  1.986875,  2.094272 )     8.78933296
  WF centre and spread   10  (  6.357420,  6.217512,  0.642502 )     7.73832903
  WF centre and spread   11  (  4.894515,  1.783237,  1.695015 )    11.00544667
  WF centre and spread   12  (  4.867974,  2.223385,  2.021127 )    13.70570155
  WF centre and spread   13  (  4.843860,  2.046047,  2.115966 )    12.13130768
  WF centre and spread   14  (  6.165094,  6.140263,  0.797351 )    11.45446117
  WF centre and spread   15  (  6.038058,  5.980411,  0.889991 )    13.67252584
  WF centre and spread   16  (  5.932554,  6.345849,  0.624677 )    12.18431489
  Sum of centres and spreads ( 88.084816, 65.323967, 21.631077 )   180.67991947

     35    -0.404E+01     1.7516695364      180.6799194678      14.05  <-- CONV
        O_D=      6.4208188 O_OD=    115.6412395 O_TOT=    180.6799195 <-- SPRD
 Delta: O_D= -0.2816895E+00 O_OD= -0.3760068E+01 O_TOT= -0.4041757E+01 <-- DLTA
 ------------------------------------------------------------------------------
 Cycle:     36
  WF centre and spread    1  (  4.884599,  1.961895,  2.088687 )     8.59692315
  WF centre and spread    2  (  6.338344,  6.202491,  0.628310 )     7.08052295
  WF centre and spread    3  (  4.885213,  1.780929,  1.667431 )    11.03752726
  WF centre and spread    4  (  4.843202,  2.218681,  2.046666 )    13.20082488
  WF centre and spread    5  (  4.958928,  2.062818,  2.122845 )    12.06183849
  WF centre and spread    6  (  6.219039,  6.122704,  0.772311 )    11.36000236
  WF centre and spread    7  (  6.051494,  5.974245,  0.846079 )    12.84788344
  WF centre and spread    8  (  5.937217,  6.233403,  0.586063 )    12.02449859
  WF centre and spread    9  (  4.879428,  1.967096,  2.089698 )     8.55173362
  WF centre and spread   10  (  6.353014,  6.220514,  0.646328 )     7.24569019
  WF centre and spread   11  (  4.903889,  1.763301,  1.686447 )    10.74956358
  WF centre and spread   12  (  4.861568,  2.211154,  2.014652 )    13.57844864
  WF centre and spread   13  (  4.869372,  2.055060,  2.118117 )    11.99214359
  WF centre and spread   14  (  6.159531,  6.160036,  0.818097 )    11.32080511
  WF centre and spread   15  (  6.045262,  5.967871,  0.885360 )    13.36865699
  WF centre and spread   16  (  5.939627,  6.336918,  0.622526 )    12.07725928
  Sum of centres and spreads ( 88.129727, 65.239116, 21.639619 )   177.09432212

     36    -0.359E+01     1.8307780627      177.0943221201      14.45  <-- CONV
        O_D=      6.0405545 O_OD=    112.4359064 O_TOT=    177.0943221 <-- SPRD
 Delta: O_D= -0.3802642E+00 O_OD= -0.3205333E+01 O_TOT= -0.3585597E+01 <-- DLTA
 ------------------------------------------------------------------------------
 Cycle:     37
  WF centre and spread    1  (  4.880165,  1.956674,  2.088131 )     8.13865411
  WF centre and spread    2  (  6.337840,  6.203658,  0.627560 )     6.53093408
[...]
  WF centre and spread    2  (  6.744756,  5.836967,  0.933638 )     4.70643029
  WF centre and spread    3  (  5.140843,  1.884885,  2.298626 )     7.58633787
  WF centre and spread    4  (  4.356892,  2.502168,  2.468310 )     4.90124046
  WF centre and spread    5  (  5.154520,  2.278398,  1.756097 )     7.41914405
  WF centre and spread    6  (  6.241642,  6.548982,  0.741612 )     7.96191850
  WF centre and spread    7  (  5.601262,  5.655907,  0.917574 )     5.34414111
  WF centre and spread    8  (  6.169241,  6.185865,  0.279955 )     8.01659993
  WF centre and spread    9  (  4.416173,  1.439114,  1.876974 )     4.14893764
  WF centre and spread   10  (  6.712143,  5.772906,  0.816453 )     5.57967208
  WF centre and spread   11  (  5.000021,  1.870463,  1.966586 )     8.08360824
  WF centre and spread   12  (  4.507417,  2.563581,  2.550887 )     4.74487703
  WF centre and spread   13  (  5.246833,  2.179392,  2.038344 )     5.84152313
  WF centre and spread   14  (  6.131747,  6.657378,  0.871288 )     7.86452407
  WF centre and spread   15  (  5.560290,  5.818803,  1.106275 )     5.23004340
  WF centre and spread   16  (  6.125263,  6.214342,  0.210663 )     8.25762221
  Sum of centres and spreads ( 87.672380, 64.822082, 22.626321 )    99.83420629

    991    -0.956E-04     0.3095680318       99.8342062911     430.70  <-- CONV
        O_D=      1.8709553 O_OD=     39.3453897 O_TOT=     99.8342063 <-- SPRD
 Delta: O_D= -0.9769851E-04 O_OD=  0.2060781E-05 O_TOT= -0.9563773E-04 <-- DLTA
 ------------------------------------------------------------------------------
 Cycle:    992
  WF centre and spread    1  (  4.563325,  1.412933,  1.793033 )     4.14757398
  WF centre and spread    2  (  6.744757,  5.836975,  0.933636 )     4.70644816
  WF centre and spread    3  (  5.140852,  1.884875,  2.298642 )     7.58624836
  WF centre and spread    4  (  4.356892,  2.502166,  2.468310 )     4.90118950
  WF centre and spread    5  (  5.154521,  2.278401,  1.756093 )     7.41910011
  WF centre and spread    6  (  6.241455,  6.548805,  0.741727 )     7.96192114
  WF centre and spread    7  (  5.601260,  5.655910,  0.917577 )     5.34411840
  WF centre and spread    8  (  6.169231,  6.185870,  0.279954 )     8.01661683
  WF centre and spread    9  (  4.416164,  1.439117,  1.876965 )     4.14896095
  WF centre and spread   10  (  6.712141,  5.772905,  0.816451 )     5.57966494
  WF centre and spread   11  (  5.000029,  1.870464,  1.966605 )     8.08356451
  WF centre and spread   12  (  4.507406,  2.563578,  2.550891 )     4.74483492
  WF centre and spread   13  (  5.246839,  2.179392,  2.038336 )     5.84148829
  WF centre and spread   14  (  6.131853,  6.657289,  0.871207 )     7.86464314
  WF centre and spread   15  (  5.560293,  5.818801,  1.106277 )     5.23000520
  WF centre and spread   16  (  6.125300,  6.214435,  0.210588 )     8.25725407
  Sum of centres and spreads ( 87.672320, 64.821917, 22.626292 )    99.83363250

    992    -0.574E-03     0.1296247093       99.8336324953     431.11  <-- CONV
        O_D=      1.8705456 O_OD=     39.3452257 O_TOT=     99.8336325 <-- SPRD
 Delta: O_D= -0.4097408E-03 O_OD= -0.1640550E-03 O_TOT= -0.5737958E-03 <-- DLTA
 ------------------------------------------------------------------------------
 Cycle:    993
  WF centre and spread    1  (  4.563323,  1.412933,  1.793032 )     4.14757254
  WF centre and spread    2  (  6.744757,  5.836977,  0.933636 )     4.70645101
  WF centre and spread    3  (  5.140854,  1.884873,  2.298646 )     7.58623088
  WF centre and spread    4  (  4.356891,  2.502165,  2.468310 )     4.90117967
  WF centre and spread    5  (  5.154522,  2.278401,  1.756092 )     7.41909065
  WF centre and spread    6  (  6.241433,  6.548762,  0.741750 )     7.96193091
  WF centre and spread    7  (  5.601260,  5.655910,  0.917578 )     5.34411290
  WF centre and spread    8  (  6.169230,  6.185871,  0.279954 )     8.01662059
  WF centre and spread    9  (  4.416163,  1.439118,  1.876963 )     4.14896540
  WF centre and spread   10  (  6.712140,  5.772905,  0.816451 )     5.57966354
  WF centre and spread   11  (  5.000031,  1.870465,  1.966609 )     8.08355589
  WF centre and spread   12  (  4.507404,  2.563577,  2.550892 )     4.74482695
  WF centre and spread   13  (  5.246840,  2.179392,  2.038334 )     5.84148186
  WF centre and spread   14  (  6.131719,  6.657393,  0.871323 )     7.86464652
  WF centre and spread   15  (  5.560294,  5.818801,  1.106277 )     5.22999729
  WF centre and spread   16  (  6.125293,  6.214433,  0.210592 )     8.25725191
  Sum of centres and spreads ( 87.672154, 64.821976, 22.626437 )    99.83357850

    993    -0.540E-04     0.1131223132       99.8335785009     431.53  <-- CONV
        O_D=      1.8705163 O_OD=     39.3452010 O_TOT=     99.8335785 <-- SPRD
 Delta: O_D= -0.2932539E-04 O_OD= -0.2466895E-04 O_TOT= -0.5399435E-04 <-- DLTA
 ------------------------------------------------------------------------------
 Cycle:    994
  WF centre and spread    1  (  4.563322,  1.412933,  1.793031 )     4.14757144
  WF centre and spread    2  (  6.744757,  5.836978,  0.933635 )     4.70645231
  WF centre and spread    3  (  5.140855,  1.884872,  2.298647 )     7.58622267
  WF centre and spread    4  (  4.356891,  2.502165,  2.468310 )     4.90117510
  WF centre and spread    5  (  5.154522,  2.278402,  1.756091 )     7.41908644
  WF centre and spread    6  (  6.241407,  6.548735,  0.741775 )     7.96193372
  WF centre and spread    7  (  5.601260,  5.655910,  0.917578 )     5.34410978
  WF centre and spread    8  (  6.169229,  6.185872,  0.279954 )     8.01662242
  WF centre and spread    9  (  4.416162,  1.439118,  1.876962 )     4.14896752
  WF centre and spread   10  (  6.712140,  5.772905,  0.816451 )     5.57966242
  WF centre and spread   11  (  5.000032,  1.870465,  1.966611 )     8.08355175
  WF centre and spread   12  (  4.507403,  2.563577,  2.550893 )     4.74482306
  WF centre and spread   13  (  5.246840,  2.179392,  2.038334 )     5.84147853
  WF centre and spread   14  (  6.131782,  6.657455,  0.871265 )     7.86465871
  WF centre and spread   15  (  5.560294,  5.818801,  1.106277 )     5.22999363
  WF centre and spread   16  (  6.125288,  6.214429,  0.210596 )     8.25724938
  Sum of centres and spreads ( 87.672184, 64.822008, 22.626410 )    99.83355889

    994    -0.196E-04     0.1299522454       99.8335588856     431.94  <-- CONV
        O_D=      1.8705120 O_OD=     39.3451856 O_TOT=     99.8335589 <-- SPRD
 Delta: O_D= -0.4241023E-05 O_OD= -0.1537427E-04 O_TOT= -0.1961530E-04 <-- DLTA
 ------------------------------------------------------------------------------
 Cycle:    995
  WF centre and spread    1  (  4.563299,  1.412937,  1.793014 )     4.14755086
  WF centre and spread    2  (  6.744760,  5.836995,  0.933630 )     4.70647717
  WF centre and spread    3  (  5.140876,  1.884850,  2.298684 )     7.58604467
  WF centre and spread    4  (  4.356889,  2.502161,  2.468314 )     4.90107563
  WF centre and spread    5  (  5.154525,  2.278413,  1.756076 )     7.41899602
  WF centre and spread    6  (  6.241319,  6.548522,  0.741920 )     7.96224528
  WF centre and spread    7  (  5.601258,  5.655913,  0.917587 )     5.34404081
  WF centre and spread    8  (  6.169214,  6.185883,  0.279954 )     8.01666309
  WF centre and spread    9  (  4.416146,  1.439125,  1.876939 )     4.14901277
  WF centre and spread   10  (  6.712138,  5.772903,  0.816448 )     5.57963604
  WF centre and spread   11  (  5.000050,  1.870469,  1.966651 )     8.08345938
  WF centre and spread   12  (  4.507383,  2.563572,  2.550901 )     4.74474022
  WF centre and spread   13  (  5.246849,  2.179391,  2.038317 )     5.84140481
  WF centre and spread   14  (  6.131917,  6.657307,  0.871158 )     7.86488893
  WF centre and spread   15  (  5.560300,  5.818795,  1.106278 )     5.22991082
  WF centre and spread   16  (  6.125136,  6.214278,  0.210751 )     8.25718054
  Sum of centres and spreads ( 87.672058, 64.821513, 22.626623 )    99.83332705

    995    -0.232E-03     0.0953731723       99.8333270504     432.36  <-- CONV
        O_D=      1.8706010 O_OD=     39.3448648 O_TOT=     99.8333271 <-- SPRD
 Delta: O_D=  0.8896996E-04 O_OD= -0.3208052E-03 O_TOT= -0.2318353E-03 <-- DLTA
 ------------------------------------------------------------------------------
 Cycle:    996
  WF centre and spread    1  (  4.563299,  1.412937,  1.793014 )     4.14755103
  WF centre and spread    2  (  6.744760,  5.836995,  0.933630 )     4.70647733
  WF centre and spread    3  (  5.140876,  1.884850,  2.298684 )     7.58604372
  WF centre and spread    4  (  4.356889,  2.502161,  2.468314 )     4.90107502
  WF centre and spread    5  (  5.154525,  2.278413,  1.756076 )     7.41899611
  WF centre and spread    6  (  6.241359,  6.548543,  0.741886 )     7.96219869
  WF centre and spread    7  (  5.601258,  5.655913,  0.917587 )     5.34404053
  WF centre and spread    8  (  6.169213,  6.185883,  0.279954 )     8.01666326
  WF centre and spread    9  (  4.416146,  1.439125,  1.876939 )     4.14901310
  WF centre and spread   10  (  6.712138,  5.772903,  0.816448 )     5.57963609
  WF centre and spread   11  (  5.000050,  1.870469,  1.966652 )     8.08345886
  WF centre and spread   12  (  4.507383,  2.563572,  2.550901 )     4.74474015
  WF centre and spread   13  (  5.246849,  2.179391,  2.038317 )     5.84140439
  WF centre and spread   14  (  6.131746,  6.657255,  0.871315 )     7.86488079
  WF centre and spread   15  (  5.560300,  5.818795,  1.106278 )     5.22991034
  WF centre and spread   16  (  6.125135,  6.214277,  0.210751 )     8.25718010
  Sum of centres and spreads ( 87.671927, 64.821484, 22.626746 )    99.83326950

    996    -0.575E-04     0.3647147519       99.8332695048     432.77  <-- CONV
        O_D=      1.8705408 O_OD=     39.3448675 O_TOT=     99.8332695 <-- SPRD
 Delta: O_D= -0.6020253E-04 O_OD=  0.2656913E-05 O_TOT= -0.5754562E-04 <-- DLTA
 ------------------------------------------------------------------------------
 Cycle:    997
  WF centre and spread    1  (  4.563299,  1.412937,  1.793013 )     4.14754859
  WF centre and spread    2  (  6.744761,  5.836996,  0.933630 )     4.70647973
  WF centre and spread    3  (  5.140877,  1.884849,  2.298686 )     7.58603436
  WF centre and spread    4  (  4.356889,  2.502161,  2.468314 )     4.90106961
  WF centre and spread    5  (  5.154526,  2.278413,  1.756075 )     7.41899891
  WF centre and spread    6  (  6.241491,  6.548601,  0.741770 )     7.96209948
  WF centre and spread    7  (  5.601258,  5.655913,  0.917587 )     5.34403453
  WF centre and spread    8  (  6.169213,  6.185884,  0.279954 )     8.01666499
  WF centre and spread    9  (  4.416145,  1.439126,  1.876938 )     4.14901704
  WF centre and spread   10  (  6.712138,  5.772903,  0.816448 )     5.57963383
  WF centre and spread   11  (  5.000051,  1.870469,  1.966654 )     8.08345374
  WF centre and spread   12  (  4.507382,  2.563572,  2.550901 )     4.74473794
  WF centre and spread   13  (  5.246849,  2.179392,  2.038317 )     5.84139840
  WF centre and spread   14  (  6.131757,  6.657473,  0.871302 )     7.86487902
  WF centre and spread   15  (  5.560301,  5.818795,  1.106278 )     5.22990702
  WF centre and spread   16  (  6.125135,  6.214274,  0.210754 )     8.25717341
  Sum of centres and spreads ( 87.672069, 64.821756, 22.626621 )    99.83313059

    997    -0.139E-03     0.2039065494       99.8331305851     433.19  <-- CONV
        O_D=      1.8704059 O_OD=     39.3448635 O_TOT=     99.8331306 <-- SPRD
 Delta: O_D= -0.1349237E-03 O_OD= -0.3995946E-05 O_TOT= -0.1389197E-03 <-- DLTA
 ------------------------------------------------------------------------------
 Cycle:    998
  WF centre and spread    1  (  4.563298,  1.412937,  1.793012 )     4.14754793
  WF centre and spread    2  (  6.744761,  5.836996,  0.933630 )     4.70648042
  WF centre and spread    3  (  5.140877,  1.884849,  2.298686 )     7.58603074
  WF centre and spread    4  (  4.356889,  2.502161,  2.468314 )     4.90106751
  WF centre and spread    5  (  5.154526,  2.278413,  1.756075 )     7.41899885
  WF centre and spread    6  (  6.241540,  6.548633,  0.741725 )     7.96208277
  WF centre and spread    7  (  5.601258,  5.655913,  0.917587 )     5.34403266
  WF centre and spread    8  (  6.169212,  6.185884,  0.279954 )     8.01666569
  WF centre and spread    9  (  4.416145,  1.439126,  1.876938 )     4.14901826
  WF centre and spread   10  (  6.712138,  5.772902,  0.816448 )     5.57963305
  WF centre and spread   11  (  5.000051,  1.870470,  1.966654 )     8.08345167
  WF centre and spread   12  (  4.507382,  2.563572,  2.550901 )     4.74473683
  WF centre and spread   13  (  5.246850,  2.179392,  2.038316 )     5.84139619
  WF centre and spread   14  (  6.131681,  6.657417,  0.871374 )     7.86488669
  WF centre and spread   15  (  5.560301,  5.818794,  1.106278 )     5.22990544
  WF centre and spread   16  (  6.125134,  6.214273,  0.210755 )     8.25717113
  Sum of centres and spreads ( 87.672042, 64.821732, 22.626649 )    99.83310584

    998    -0.247E-04     0.1552381284       99.8331058372     433.60  <-- CONV
        O_D=      1.8703850 O_OD=     39.3448597 O_TOT=     99.8331058 <-- SPRD
 Delta: O_D= -0.2090045E-04 O_OD= -0.3847488E-05 O_TOT= -0.2474794E-04 <-- DLTA
 ------------------------------------------------------------------------------
 Cycle:    999
  WF centre and spread    1  (  4.563297,  1.412937,  1.793011 )     4.14754550
  WF centre and spread    2  (  6.744761,  5.836997,  0.933629 )     4.70648233
  WF centre and spread    3  (  5.140878,  1.884848,  2.298688 )     7.58602105
  WF centre and spread    4  (  4.356889,  2.502160,  2.468314 )     4.90106197
  WF centre and spread    5  (  5.154526,  2.278414,  1.756074 )     7.41899821
  WF centre and spread    6  (  6.241606,  6.548685,  0.741662 )     7.96208568
  WF centre and spread    7  (  5.601258,  5.655913,  0.917588 )     5.34402728
  WF centre and spread    8  (  6.169211,  6.185885,  0.279954 )     8.01666761
  WF centre and spread    9  (  4.416144,  1.439126,  1.876936 )     4.14902148
  WF centre and spread   10  (  6.712138,  5.772902,  0.816448 )     5.57963049
  WF centre and spread   11  (  5.000052,  1.870470,  1.966657 )     8.08344614
  WF centre and spread   12  (  4.507381,  2.563571,  2.550901 )     4.74473331
  WF centre and spread   13  (  5.246850,  2.179392,  2.038315 )     5.84138998
  WF centre and spread   14  (  6.131807,  6.657369,  0.871265 )     7.86487965
  WF centre and spread   15  (  5.560301,  5.818794,  1.106278 )     5.22990133
  WF centre and spread   16  (  6.125134,  6.214269,  0.210758 )     8.25716527
  Sum of centres and spreads ( 87.672234, 64.821732, 22.626480 )    99.83305726

    999    -0.486E-04     0.1851115421       99.8330572638     434.03  <-- CONV
        O_D=      1.8703547 O_OD=     39.3448414 O_TOT=     99.8330573 <-- SPRD
 Delta: O_D= -0.3028792E-04 O_OD= -0.1828545E-04 O_TOT= -0.4857337E-04 <-- DLTA
 ------------------------------------------------------------------------------
 Cycle:   1000
  WF centre and spread    1  (  4.563296,  1.412937,  1.793011 )     4.14754431
  WF centre and spread    2  (  6.744761,  5.836998,  0.933629 )     4.70648371
  WF centre and spread    3  (  5.140879,  1.884847,  2.298690 )     7.58601223
  WF centre and spread    4  (  4.356889,  2.502160,  2.468314 )     4.90105684
  WF centre and spread    5  (  5.154526,  2.278414,  1.756074 )     7.41899460
  WF centre and spread    6  (  6.241617,  6.548699,  0.741651 )     7.96209447
  WF centre and spread    7  (  5.601258,  5.655913,  0.917588 )     5.34402343
  WF centre and spread    8  (  6.169210,  6.185885,  0.279954 )     8.01666944
  WF centre and spread    9  (  4.416143,  1.439127,  1.876935 )     4.14902375
  WF centre and spread   10  (  6.712138,  5.772902,  0.816448 )     5.57962901
  WF centre and spread   11  (  5.000053,  1.870470,  1.966659 )     8.08344126
  WF centre and spread   12  (  4.507380,  2.563571,  2.550902 )     4.74472965
  WF centre and spread   13  (  5.246851,  2.179392,  2.038315 )     5.84138507
  WF centre and spread   14  (  6.131735,  6.657333,  0.871333 )     7.86489644
  WF centre and spread   15  (  5.560301,  5.818794,  1.106278 )     5.22989717
  WF centre and spread   16  (  6.125133,  6.214267,  0.210760 )     8.25716239
  Sum of centres and spreads ( 87.672171, 64.821710, 22.626540 )    99.83304379

   1000    -0.135E-04     0.0674397590       99.8330437869     434.46  <-- CONV
        O_D=      1.8703579 O_OD=     39.3448247 O_TOT=     99.8330438 <-- SPRD
 Delta: O_D=  0.3176083E-05 O_OD= -0.1665294E-04 O_TOT= -0.1347686E-04 <-- DLTA
 ------------------------------------------------------------------------------

 Writing checkpoint file test3.chk... done

 Final State
  WF centre and spread    1  (  4.563296,  1.412937,  1.793011 )     4.14754431
  WF centre and spread    2  (  6.744761,  5.836998,  0.933629 )     4.70648371
  WF centre and spread    3  (  5.140879,  1.884847,  2.298690 )     7.58601223
  WF centre and spread    4  (  4.356889,  2.502160,  2.468314 )     4.90105684
  WF centre and spread    5  (  5.154526,  2.278414,  1.756074 )     7.41899460
  WF centre and spread    6  (  6.241617,  6.548699,  0.741651 )     7.96209447
  WF centre and spread    7  (  5.601258,  5.655913,  0.917588 )     5.34402343
  WF centre and spread    8  (  6.169210,  6.185885,  0.279954 )     8.01666944
  WF centre and spread    9  (  4.416143,  1.439127,  1.876935 )     4.14902375
  WF centre and spread   10  (  6.712138,  5.772902,  0.816448 )     5.57962901
  WF centre and spread   11  (  5.000053,  1.870470,  1.966659 )     8.08344126
  WF centre and spread   12  (  4.507380,  2.563571,  2.550902 )     4.74472965
  WF centre and spread   13  (  5.246851,  2.179392,  2.038315 )     5.84138507
  WF centre and spread   14  (  6.131735,  6.657333,  0.871333 )     7.86489644
  WF centre and spread   15  (  5.560301,  5.818794,  1.106278 )     5.22989717
  WF centre and spread   16  (  6.125133,  6.214267,  0.210760 )     8.25716239
  Sum of centres and spreads ( 87.672171, 64.821710, 22.626540 )    99.83304379

         Spreads (Ang^2)       Omega I      =    58.617861221
        ================       Omega D      =     1.870357854
                               Omega OD     =    39.344824712
    Final Spread (Ang^2)       Omega Total  =    99.833043787
 ------------------------------------------------------------------------------

 Wannier centres written to file test3_centres.xyz
 Time for wannierise          434.363 (sec)

 Writing checkpoint file test3.chk... done

 *---------------------------------------------------------------------------*
 |                               PLOTTING                                    |
 *---------------------------------------------------------------------------*


 Calculating interpolated band-structure

 Time to calculate interpolated band structure       2.665 (sec)

 Time for plotting              4.076 (sec)
 Total Execution Time         439.082 (sec)

 *===========================================================================*
 |                             TIMING INFORMATION                            |
 *===========================================================================*
 |    Tag                                                Ncalls      Time (s)|
 |---------------------------------------------------------------------------|
 |kmesh: get                                        :         1         0.365|
 |wann: main                                        :         1       434.363|
 |plot: main                                        :         1         4.076|
 *---------------------------------------------------------------------------*

 All done: wannier90 exiting
